
     Program PWSCF v.6.6 starts on  4Mar2021 at 11:32:41 

     This program is part of the open-source Quantum ESPRESSO suite
     for quantum simulation of materials; please cite
         "P. Giannozzi et al., J. Phys.:Condens. Matter 21 395502 (2009);
         "P. Giannozzi et al., J. Phys.:Condens. Matter 29 465901 (2017);
          URL http://www.quantum-espresso.org", 
     in publications or presentations arising from this work. More details at
     http://www.quantum-espresso.org/quote

     Parallel version (MPI), running on    24 processors

     MPI processes distributed on     1 nodes
     R & G space division:  proc/nbgrp/npool/nimage =      24
     Fft bands division:     nmany     =       1
     Reading input from Al.pw.scf_high.in

     Current dimensions of program PWSCF are:
     Max number of different atomic species (ntypx) = 10
     Max number of k-points (npk) =  40000
     Max angular momentum in pseudopotentials (lmaxx) =  3

     Subspace diagonalization in iterative solution of the eigenvalue problem:
     one sub-group per band group will be used
     scalapack distributed-memory algorithm (size of sub-group:  4*  4 procs)


     Parallelization info
     --------------------
     sticks:   dense  smooth     PW     G-vecs:    dense   smooth      PW
     Min         349     349     93                22645    22645    3127
     Max         350     350     94                22646    22646    3130
     Sum        8389    8389   2241               543493   543493   75083



     bravais-lattice index     =            0
     lattice parameter (alat)  =      16.2193  a.u.
     unit-cell volume          =    4022.6908 (a.u.)^3
     number of atoms/cell      =           36
     number of atomic types    =            1
     number of electrons       =       108.00
     number of Kohn-Sham states=          200
     kinetic-energy cutoff     =     100.0000  Ry
     charge density cutoff     =     400.0000  Ry
     convergence threshold     =      1.0E-08
     mixing beta               =       0.7000
     number of iterations used =            8  plain     mixing
     Exchange-correlation= PBE
                           (   1   4   3   4   0   0   0)

     celldm(1)=  16.219258  celldm(2)=   0.000000  celldm(3)=   0.000000
     celldm(4)=   0.000000  celldm(5)=   0.000000  celldm(6)=   0.000000

     crystal axes: (cart. coord. in units of alat)
               a(1) = (   1.000000   0.000000   0.000000 )  
               a(2) = (   0.000000   1.000000   0.000000 )  
               a(3) = (   0.000000   0.000000   0.942809 )  

     reciprocal axes: (cart. coord. in units 2 pi/alat)
               b(1) = (  1.000000  0.000000  0.000000 )  
               b(2) = (  0.000000  1.000000  0.000000 )  
               b(3) = (  0.000000  0.000000  1.060660 )  


     PseudoPot. # 1 for Al read from file:
     /home/fiedle09/tools/PPs/pbe/Al.pbe-n-rrkjus_psl.1.0.0.UPF
     MD5 check sum: 942f0b55d6a815bb3632501e61c8a399
     Pseudo is Ultrasoft + core correction, Zval =  3.0
     Generated using "atomic" code by A. Dal Corso v.6.6
     Using radial grid of 1135 points,  6 beta functions with: 
                l(1) =   0
                l(2) =   0
                l(3) =   1
                l(4) =   1
                l(5) =   2
                l(6) =   2
     Q(r) pseudized with 0 coefficients 


     atomic species   valence    mass     pseudopotential
        Al             3.00    26.98154     Al( 1.00)

     No symmetry found


                                    s                        frac. trans.

      isym =  1     identity                                     

 cryst.   s( 1) = (     1          0          0      )
                  (     0          1          0      )
                  (     0          0          1      )

 cart.    s( 1) = (  1.0000000  0.0000000  0.0000000 )
                  (  0.0000000  1.0000000  0.0000000 )
                  (  0.0000000  0.0000000  1.0000000 )


   Cartesian axes

     site n.     atom                  positions (alat units)
         1           Al  tau(   1) = (   0.0000000   0.0000000   0.0000000  )
         2           Al  tau(   2) = (   0.6222359   0.4384556   0.4428098  )
         3           Al  tau(   3) = (   0.8681086   0.3858602   0.1936777  )
         4           Al  tau(   4) = (   0.2252277   0.4784427   0.3231502  )
         5           Al  tau(   5) = (   0.5306853   0.6457863   0.0679626  )
         6           Al  tau(   6) = (   0.6653874   0.4960109   0.7224841  )
         7           Al  tau(   7) = (   0.8924775   0.1117923   0.6691547  )
         8           Al  tau(   8) = (   0.2109680   0.8515736   0.0629285  )
         9           Al  tau(   9) = (   0.4017652   0.1816010   0.4627768  )
        10           Al  tau(  10) = (   0.3244703   0.4487090   0.5439238  )
        11           Al  tau(  11) = (   0.9002750   0.4048163   0.5106156  )
        12           Al  tau(  12) = (   0.7092972   0.7762081   0.6741923  )
        13           Al  tau(  13) = (   0.9896818   0.2231526   0.3566452  )
        14           Al  tau(  14) = (   0.1507202   0.2850104   0.6809159  )
        15           Al  tau(  15) = (   0.2213726   0.1979631   0.1307575  )
        16           Al  tau(  16) = (   0.0400998   0.5544385   0.0776533  )
        17           Al  tau(  17) = (   0.2001708   0.5735534   0.7376009  )
        18           Al  tau(  18) = (   0.9719229   0.7940483   0.6643282  )
        19           Al  tau(  19) = (   0.7303371   0.1894330   0.3724162  )
        20           Al  tau(  20) = (   0.7505443   0.5201234   0.9403882  )
        21           Al  tau(  21) = (   0.6109248   0.2493710   0.8671255  )
        22           Al  tau(  22) = (   0.7044897   0.5981651   0.2816693  )
        23           Al  tau(  23) = (   0.5305379   0.2557016   0.2266297  )
        24           Al  tau(  24) = (   0.2045175   0.0054984   0.6908630  )
        25           Al  tau(  25) = (   0.7799670   0.1064646   0.0850697  )
        26           Al  tau(  26) = (   0.6387707   0.2263488   0.6077162  )
        27           Al  tau(  27) = (   0.3420532   0.4139289   0.9287604  )
        28           Al  tau(  28) = (   0.5430771   0.0180055   0.2148335  )
        29           Al  tau(  29) = (   0.3443341   0.7804809   0.2798267  )
        30           Al  tau(  30) = (   0.1833343   0.9904088   0.3189499  )
        31           Al  tau(  31) = (   0.7492178   0.9244814   0.3906121  )
        32           Al  tau(  32) = (   0.4182014   0.1254235   0.7404016  )
        33           Al  tau(  33) = (   0.4625478   0.6558151   0.5041429  )
        34           Al  tau(  34) = (   0.4734741   0.9255702   0.5518476  )
        35           Al  tau(  35) = (   0.8404145   0.7896813   0.0356464  )
        36           Al  tau(  36) = (   0.9720077   0.7302859   0.3331096  )

   Crystallographic axes

     site n.     atom                  positions (cryst. coord.)
         1           Al  tau(   1) = (  0.0000000  0.0000000  0.0000000  )
         2           Al  tau(   2) = (  0.6222359  0.4384556  0.4696708  )
         3           Al  tau(   3) = (  0.8681086  0.3858602  0.2054262  )
         4           Al  tau(   4) = (  0.2252277  0.4784427  0.3427525  )
         5           Al  tau(   5) = (  0.5306853  0.6457863  0.0720852  )
         6           Al  tau(   6) = (  0.6653874  0.4960109  0.7663101  )
         7           Al  tau(   7) = (  0.8924775  0.1117923  0.7097457  )
         8           Al  tau(   8) = (  0.2109680  0.8515736  0.0667457  )
         9           Al  tau(   9) = (  0.4017652  0.1816010  0.4908489  )
        10           Al  tau(  10) = (  0.3244703  0.4487090  0.5769183  )
        11           Al  tau(  11) = (  0.9002750  0.4048163  0.5415896  )
        12           Al  tau(  12) = (  0.7092972  0.7762081  0.7150889  )
        13           Al  tau(  13) = (  0.9896818  0.2231526  0.3782793  )
        14           Al  tau(  14) = (  0.1507202  0.2850104  0.7222204  )
        15           Al  tau(  15) = (  0.2213726  0.1979631  0.1386893  )
        16           Al  tau(  16) = (  0.0400998  0.5544385  0.0823637  )
        17           Al  tau(  17) = (  0.2001708  0.5735534  0.7823439  )
        18           Al  tau(  18) = (  0.9719229  0.7940483  0.7046264  )
        19           Al  tau(  19) = (  0.7303371  0.1894330  0.3950070  )
        20           Al  tau(  20) = (  0.7505443  0.5201234  0.9974323  )
        21           Al  tau(  21) = (  0.6109248  0.2493710  0.9197255  )
        22           Al  tau(  22) = (  0.7044897  0.5981651  0.2987554  )
        23           Al  tau(  23) = (  0.5305379  0.2557016  0.2403771  )
        24           Al  tau(  24) = (  0.2045175  0.0054984  0.7327709  )
        25           Al  tau(  25) = (  0.7799670  0.1064646  0.0902300  )
        26           Al  tau(  26) = (  0.6387707  0.2263488  0.6445804  )
        27           Al  tau(  27) = (  0.3420532  0.4139289  0.9850992  )
        28           Al  tau(  28) = (  0.5430771  0.0180055  0.2278653  )
        29           Al  tau(  29) = (  0.3443341  0.7804809  0.2968010  )
        30           Al  tau(  30) = (  0.1833343  0.9904088  0.3382974  )
        31           Al  tau(  31) = (  0.7492178  0.9244814  0.4143067  )
        32           Al  tau(  32) = (  0.4182014  0.1254235  0.7853145  )
        33           Al  tau(  33) = (  0.4625478  0.6558151  0.5347243  )
        34           Al  tau(  34) = (  0.4734741  0.9255702  0.5853228  )
        35           Al  tau(  35) = (  0.8404145  0.7896813  0.0378088  )
        36           Al  tau(  36) = (  0.9720077  0.7302859  0.3533161  )

     number of k points=   112  Fermi-Dirac smearing, width (Ry)=  0.0019
                       cart. coord. in units 2pi/alat
        k(    1) = (   0.0000000   0.0000000   0.0000000), wk =   0.0092593
        k(    2) = (   0.0000000   0.0000000   0.1767767), wk =   0.0185185
        k(    3) = (   0.0000000   0.0000000   0.3535534), wk =   0.0185185
        k(    4) = (   0.0000000   0.0000000  -0.5303301), wk =   0.0092593
        k(    5) = (   0.0000000   0.1666667   0.0000000), wk =   0.0185185
        k(    6) = (   0.0000000   0.1666667   0.1767767), wk =   0.0185185
        k(    7) = (   0.0000000   0.1666667   0.3535534), wk =   0.0185185
        k(    8) = (   0.0000000   0.1666667  -0.5303301), wk =   0.0185185
        k(    9) = (   0.0000000   0.3333333   0.0000000), wk =   0.0185185
        k(   10) = (   0.0000000   0.3333333   0.1767767), wk =   0.0185185
        k(   11) = (   0.0000000   0.3333333   0.3535534), wk =   0.0185185
        k(   12) = (   0.0000000   0.3333333  -0.5303301), wk =   0.0185185
        k(   13) = (   0.0000000  -0.5000000   0.0000000), wk =   0.0092593
        k(   14) = (   0.0000000  -0.5000000   0.1767767), wk =   0.0185185
        k(   15) = (   0.0000000  -0.5000000   0.3535534), wk =   0.0185185
        k(   16) = (   0.0000000  -0.5000000  -0.5303301), wk =   0.0092593
        k(   17) = (   0.1666667   0.1666667   0.0000000), wk =   0.0185185
        k(   18) = (   0.1666667   0.1666667   0.1767767), wk =   0.0185185
        k(   19) = (   0.1666667   0.1666667   0.3535534), wk =   0.0185185
        k(   20) = (   0.1666667   0.1666667  -0.5303301), wk =   0.0185185
        k(   21) = (   0.1666667   0.3333333   0.0000000), wk =   0.0185185
        k(   22) = (   0.1666667   0.3333333   0.1767767), wk =   0.0185185
        k(   23) = (   0.1666667   0.3333333   0.3535534), wk =   0.0185185
        k(   24) = (   0.1666667   0.3333333  -0.5303301), wk =   0.0185185
        k(   25) = (   0.1666667  -0.5000000   0.0000000), wk =   0.0185185
        k(   26) = (   0.1666667  -0.5000000   0.1767767), wk =   0.0185185
        k(   27) = (   0.1666667  -0.5000000   0.3535534), wk =   0.0185185
        k(   28) = (   0.1666667  -0.5000000  -0.5303301), wk =   0.0185185
        k(   29) = (   0.3333333   0.3333333   0.0000000), wk =   0.0185185
        k(   30) = (   0.3333333   0.3333333   0.1767767), wk =   0.0185185
        k(   31) = (   0.3333333   0.3333333   0.3535534), wk =   0.0185185
        k(   32) = (   0.3333333   0.3333333  -0.5303301), wk =   0.0185185
        k(   33) = (   0.3333333  -0.5000000   0.0000000), wk =   0.0185185
        k(   34) = (   0.3333333  -0.5000000   0.1767767), wk =   0.0185185
        k(   35) = (   0.3333333  -0.5000000   0.3535534), wk =   0.0185185
        k(   36) = (   0.3333333  -0.5000000  -0.5303301), wk =   0.0185185
        k(   37) = (  -0.5000000  -0.5000000   0.0000000), wk =   0.0092593
        k(   38) = (  -0.5000000  -0.5000000   0.1767767), wk =   0.0185185
        k(   39) = (  -0.5000000  -0.5000000   0.3535534), wk =   0.0185185
        k(   40) = (  -0.5000000  -0.5000000  -0.5303301), wk =   0.0092593
        k(   41) = (   0.1666667   0.0000000   0.0000000), wk =   0.0185185
        k(   42) = (   0.0000000  -0.1666667   0.1767767), wk =   0.0185185
        k(   43) = (   0.1666667   0.0000000  -0.1767767), wk =   0.0185185
        k(   44) = (  -0.1666667   0.0000000  -0.1767767), wk =   0.0185185
        k(   45) = (   0.0000000  -0.1666667   0.3535534), wk =   0.0185185
        k(   46) = (   0.1666667   0.0000000  -0.3535534), wk =   0.0185185
        k(   47) = (  -0.1666667   0.0000000  -0.3535534), wk =   0.0185185
        k(   48) = (   0.1666667   0.0000000   0.5303301), wk =   0.0185185
        k(   49) = (   0.3333333   0.0000000   0.0000000), wk =   0.0185185
        k(   50) = (   0.0000000  -0.3333333   0.1767767), wk =   0.0185185
        k(   51) = (   0.3333333   0.0000000  -0.1767767), wk =   0.0185185
        k(   52) = (  -0.3333333   0.0000000  -0.1767767), wk =   0.0185185
        k(   53) = (   0.0000000  -0.3333333   0.3535534), wk =   0.0185185
        k(   54) = (   0.3333333   0.0000000  -0.3535534), wk =   0.0185185
        k(   55) = (  -0.3333333   0.0000000  -0.3535534), wk =   0.0185185
        k(   56) = (   0.3333333   0.0000000   0.5303301), wk =   0.0185185
        k(   57) = (  -0.5000000   0.0000000   0.0000000), wk =   0.0092593
        k(   58) = (  -0.5000000   0.0000000  -0.1767767), wk =   0.0185185
        k(   59) = (  -0.5000000   0.0000000  -0.3535534), wk =   0.0185185
        k(   60) = (  -0.5000000   0.0000000   0.5303301), wk =   0.0092593
        k(   61) = (  -0.1666667   0.1666667   0.0000000), wk =   0.0185185
        k(   62) = (  -0.1666667  -0.1666667   0.1767767), wk =   0.0185185
        k(   63) = (  -0.1666667   0.1666667  -0.1767767), wk =   0.0185185
        k(   64) = (   0.1666667  -0.1666667  -0.1767767), wk =   0.0185185
        k(   65) = (  -0.1666667  -0.1666667   0.3535534), wk =   0.0185185
        k(   66) = (  -0.1666667   0.1666667  -0.3535534), wk =   0.0185185
        k(   67) = (   0.1666667  -0.1666667  -0.3535534), wk =   0.0185185
        k(   68) = (  -0.1666667   0.1666667   0.5303301), wk =   0.0185185
        k(   69) = (  -0.1666667   0.3333333   0.0000000), wk =   0.0185185
        k(   70) = (   0.3333333   0.1666667   0.0000000), wk =   0.0185185
        k(   71) = (   0.3333333  -0.1666667   0.0000000), wk =   0.0185185
        k(   72) = (  -0.1666667  -0.3333333   0.1767767), wk =   0.0185185
        k(   73) = (  -0.1666667   0.3333333  -0.1767767), wk =   0.0185185
        k(   74) = (   0.1666667  -0.3333333  -0.1767767), wk =   0.0185185
        k(   75) = (   0.3333333   0.1666667  -0.1767767), wk =   0.0185185
        k(   76) = (  -0.3333333  -0.1666667  -0.1767767), wk =   0.0185185
        k(   77) = (   0.3333333  -0.1666667   0.1767767), wk =   0.0185185
        k(   78) = (  -0.3333333   0.1666667   0.1767767), wk =   0.0185185
        k(   79) = (  -0.1666667  -0.3333333   0.3535534), wk =   0.0185185
        k(   80) = (  -0.1666667   0.3333333  -0.3535534), wk =   0.0185185
        k(   81) = (   0.1666667  -0.3333333  -0.3535534), wk =   0.0185185
        k(   82) = (   0.3333333   0.1666667  -0.3535534), wk =   0.0185185
        k(   83) = (  -0.3333333  -0.1666667  -0.3535534), wk =   0.0185185
        k(   84) = (   0.3333333  -0.1666667   0.3535534), wk =   0.0185185
        k(   85) = (  -0.3333333   0.1666667   0.3535534), wk =   0.0185185
        k(   86) = (  -0.1666667   0.3333333   0.5303301), wk =   0.0185185
        k(   87) = (   0.3333333   0.1666667   0.5303301), wk =   0.0185185
        k(   88) = (   0.3333333  -0.1666667  -0.5303301), wk =   0.0185185
        k(   89) = (  -0.5000000   0.1666667   0.0000000), wk =   0.0185185
        k(   90) = (  -0.1666667   0.5000000   0.1767767), wk =   0.0185185
        k(   91) = (  -0.5000000   0.1666667  -0.1767767), wk =   0.0185185
        k(   92) = (   0.5000000  -0.1666667  -0.1767767), wk =   0.0185185
        k(   93) = (  -0.1666667   0.5000000   0.3535534), wk =   0.0185185
        k(   94) = (  -0.5000000   0.1666667  -0.3535534), wk =   0.0185185
        k(   95) = (   0.5000000  -0.1666667  -0.3535534), wk =   0.0185185
        k(   96) = (  -0.5000000   0.1666667   0.5303301), wk =   0.0185185
        k(   97) = (  -0.3333333   0.3333333   0.0000000), wk =   0.0185185
        k(   98) = (  -0.3333333  -0.3333333   0.1767767), wk =   0.0185185
        k(   99) = (  -0.3333333   0.3333333  -0.1767767), wk =   0.0185185
        k(  100) = (   0.3333333  -0.3333333  -0.1767767), wk =   0.0185185
        k(  101) = (  -0.3333333  -0.3333333   0.3535534), wk =   0.0185185
        k(  102) = (  -0.3333333   0.3333333  -0.3535534), wk =   0.0185185
        k(  103) = (   0.3333333  -0.3333333  -0.3535534), wk =   0.0185185
        k(  104) = (  -0.3333333   0.3333333   0.5303301), wk =   0.0185185
        k(  105) = (  -0.5000000   0.3333333   0.0000000), wk =   0.0185185
        k(  106) = (  -0.3333333   0.5000000   0.1767767), wk =   0.0185185
        k(  107) = (  -0.5000000   0.3333333  -0.1767767), wk =   0.0185185
        k(  108) = (   0.5000000  -0.3333333  -0.1767767), wk =   0.0185185
        k(  109) = (  -0.3333333   0.5000000   0.3535534), wk =   0.0185185
        k(  110) = (  -0.5000000   0.3333333  -0.3535534), wk =   0.0185185
        k(  111) = (   0.5000000  -0.3333333  -0.3535534), wk =   0.0185185
        k(  112) = (  -0.5000000   0.3333333   0.5303301), wk =   0.0185185

                       cryst. coord.
        k(    1) = (   0.0000000   0.0000000   0.0000000), wk =   0.0092593
        k(    2) = (   0.0000000   0.0000000   0.1666667), wk =   0.0185185
        k(    3) = (   0.0000000   0.0000000   0.3333333), wk =   0.0185185
        k(    4) = (   0.0000000   0.0000000  -0.5000000), wk =   0.0092593
        k(    5) = (   0.0000000   0.1666667   0.0000000), wk =   0.0185185
        k(    6) = (   0.0000000   0.1666667   0.1666667), wk =   0.0185185
        k(    7) = (   0.0000000   0.1666667   0.3333333), wk =   0.0185185
        k(    8) = (   0.0000000   0.1666667  -0.5000000), wk =   0.0185185
        k(    9) = (   0.0000000   0.3333333   0.0000000), wk =   0.0185185
        k(   10) = (   0.0000000   0.3333333   0.1666667), wk =   0.0185185
        k(   11) = (   0.0000000   0.3333333   0.3333333), wk =   0.0185185
        k(   12) = (   0.0000000   0.3333333  -0.5000000), wk =   0.0185185
        k(   13) = (   0.0000000  -0.5000000   0.0000000), wk =   0.0092593
        k(   14) = (   0.0000000  -0.5000000   0.1666667), wk =   0.0185185
        k(   15) = (   0.0000000  -0.5000000   0.3333333), wk =   0.0185185
        k(   16) = (   0.0000000  -0.5000000  -0.5000000), wk =   0.0092593
        k(   17) = (   0.1666667   0.1666667   0.0000000), wk =   0.0185185
        k(   18) = (   0.1666667   0.1666667   0.1666667), wk =   0.0185185
        k(   19) = (   0.1666667   0.1666667   0.3333333), wk =   0.0185185
        k(   20) = (   0.1666667   0.1666667  -0.5000000), wk =   0.0185185
        k(   21) = (   0.1666667   0.3333333   0.0000000), wk =   0.0185185
        k(   22) = (   0.1666667   0.3333333   0.1666667), wk =   0.0185185
        k(   23) = (   0.1666667   0.3333333   0.3333333), wk =   0.0185185
        k(   24) = (   0.1666667   0.3333333  -0.5000000), wk =   0.0185185
        k(   25) = (   0.1666667  -0.5000000   0.0000000), wk =   0.0185185
        k(   26) = (   0.1666667  -0.5000000   0.1666667), wk =   0.0185185
        k(   27) = (   0.1666667  -0.5000000   0.3333333), wk =   0.0185185
        k(   28) = (   0.1666667  -0.5000000  -0.5000000), wk =   0.0185185
        k(   29) = (   0.3333333   0.3333333   0.0000000), wk =   0.0185185
        k(   30) = (   0.3333333   0.3333333   0.1666667), wk =   0.0185185
        k(   31) = (   0.3333333   0.3333333   0.3333333), wk =   0.0185185
        k(   32) = (   0.3333333   0.3333333  -0.5000000), wk =   0.0185185
        k(   33) = (   0.3333333  -0.5000000   0.0000000), wk =   0.0185185
        k(   34) = (   0.3333333  -0.5000000   0.1666667), wk =   0.0185185
        k(   35) = (   0.3333333  -0.5000000   0.3333333), wk =   0.0185185
        k(   36) = (   0.3333333  -0.5000000  -0.5000000), wk =   0.0185185
        k(   37) = (  -0.5000000  -0.5000000   0.0000000), wk =   0.0092593
        k(   38) = (  -0.5000000  -0.5000000   0.1666667), wk =   0.0185185
        k(   39) = (  -0.5000000  -0.5000000   0.3333333), wk =   0.0185185
        k(   40) = (  -0.5000000  -0.5000000  -0.5000000), wk =   0.0092593
        k(   41) = (   0.1666667   0.0000000   0.0000000), wk =   0.0185185
        k(   42) = (   0.0000000  -0.1666667   0.1666667), wk =   0.0185185
        k(   43) = (   0.1666667   0.0000000  -0.1666667), wk =   0.0185185
        k(   44) = (  -0.1666667   0.0000000  -0.1666667), wk =   0.0185185
        k(   45) = (   0.0000000  -0.1666667   0.3333333), wk =   0.0185185
        k(   46) = (   0.1666667   0.0000000  -0.3333333), wk =   0.0185185
        k(   47) = (  -0.1666667   0.0000000  -0.3333333), wk =   0.0185185
        k(   48) = (   0.1666667   0.0000000   0.5000000), wk =   0.0185185
        k(   49) = (   0.3333333   0.0000000   0.0000000), wk =   0.0185185
        k(   50) = (   0.0000000  -0.3333333   0.1666667), wk =   0.0185185
        k(   51) = (   0.3333333   0.0000000  -0.1666667), wk =   0.0185185
        k(   52) = (  -0.3333333   0.0000000  -0.1666667), wk =   0.0185185
        k(   53) = (   0.0000000  -0.3333333   0.3333333), wk =   0.0185185
        k(   54) = (   0.3333333   0.0000000  -0.3333333), wk =   0.0185185
        k(   55) = (  -0.3333333   0.0000000  -0.3333333), wk =   0.0185185
        k(   56) = (   0.3333333   0.0000000   0.5000000), wk =   0.0185185
        k(   57) = (  -0.5000000   0.0000000   0.0000000), wk =   0.0092593
        k(   58) = (  -0.5000000   0.0000000  -0.1666667), wk =   0.0185185
        k(   59) = (  -0.5000000   0.0000000  -0.3333333), wk =   0.0185185
        k(   60) = (  -0.5000000   0.0000000   0.5000000), wk =   0.0092593
        k(   61) = (  -0.1666667   0.1666667   0.0000000), wk =   0.0185185
        k(   62) = (  -0.1666667  -0.1666667   0.1666667), wk =   0.0185185
        k(   63) = (  -0.1666667   0.1666667  -0.1666667), wk =   0.0185185
        k(   64) = (   0.1666667  -0.1666667  -0.1666667), wk =   0.0185185
        k(   65) = (  -0.1666667  -0.1666667   0.3333333), wk =   0.0185185
        k(   66) = (  -0.1666667   0.1666667  -0.3333333), wk =   0.0185185
        k(   67) = (   0.1666667  -0.1666667  -0.3333333), wk =   0.0185185
        k(   68) = (  -0.1666667   0.1666667   0.5000000), wk =   0.0185185
        k(   69) = (  -0.1666667   0.3333333   0.0000000), wk =   0.0185185
        k(   70) = (   0.3333333   0.1666667   0.0000000), wk =   0.0185185
        k(   71) = (   0.3333333  -0.1666667   0.0000000), wk =   0.0185185
        k(   72) = (  -0.1666667  -0.3333333   0.1666667), wk =   0.0185185
        k(   73) = (  -0.1666667   0.3333333  -0.1666667), wk =   0.0185185
        k(   74) = (   0.1666667  -0.3333333  -0.1666667), wk =   0.0185185
        k(   75) = (   0.3333333   0.1666667  -0.1666667), wk =   0.0185185
        k(   76) = (  -0.3333333  -0.1666667  -0.1666667), wk =   0.0185185
        k(   77) = (   0.3333333  -0.1666667   0.1666667), wk =   0.0185185
        k(   78) = (  -0.3333333   0.1666667   0.1666667), wk =   0.0185185
        k(   79) = (  -0.1666667  -0.3333333   0.3333333), wk =   0.0185185
        k(   80) = (  -0.1666667   0.3333333  -0.3333333), wk =   0.0185185
        k(   81) = (   0.1666667  -0.3333333  -0.3333333), wk =   0.0185185
        k(   82) = (   0.3333333   0.1666667  -0.3333333), wk =   0.0185185
        k(   83) = (  -0.3333333  -0.1666667  -0.3333333), wk =   0.0185185
        k(   84) = (   0.3333333  -0.1666667   0.3333333), wk =   0.0185185
        k(   85) = (  -0.3333333   0.1666667   0.3333333), wk =   0.0185185
        k(   86) = (  -0.1666667   0.3333333   0.5000000), wk =   0.0185185
        k(   87) = (   0.3333333   0.1666667   0.5000000), wk =   0.0185185
        k(   88) = (   0.3333333  -0.1666667  -0.5000000), wk =   0.0185185
        k(   89) = (  -0.5000000   0.1666667   0.0000000), wk =   0.0185185
        k(   90) = (  -0.1666667   0.5000000   0.1666667), wk =   0.0185185
        k(   91) = (  -0.5000000   0.1666667  -0.1666667), wk =   0.0185185
        k(   92) = (   0.5000000  -0.1666667  -0.1666667), wk =   0.0185185
        k(   93) = (  -0.1666667   0.5000000   0.3333333), wk =   0.0185185
        k(   94) = (  -0.5000000   0.1666667  -0.3333333), wk =   0.0185185
        k(   95) = (   0.5000000  -0.1666667  -0.3333333), wk =   0.0185185
        k(   96) = (  -0.5000000   0.1666667   0.5000000), wk =   0.0185185
        k(   97) = (  -0.3333333   0.3333333   0.0000000), wk =   0.0185185
        k(   98) = (  -0.3333333  -0.3333333   0.1666667), wk =   0.0185185
        k(   99) = (  -0.3333333   0.3333333  -0.1666667), wk =   0.0185185
        k(  100) = (   0.3333333  -0.3333333  -0.1666667), wk =   0.0185185
        k(  101) = (  -0.3333333  -0.3333333   0.3333333), wk =   0.0185185
        k(  102) = (  -0.3333333   0.3333333  -0.3333333), wk =   0.0185185
        k(  103) = (   0.3333333  -0.3333333  -0.3333333), wk =   0.0185185
        k(  104) = (  -0.3333333   0.3333333   0.5000000), wk =   0.0185185
        k(  105) = (  -0.5000000   0.3333333   0.0000000), wk =   0.0185185
        k(  106) = (  -0.3333333   0.5000000   0.1666667), wk =   0.0185185
        k(  107) = (  -0.5000000   0.3333333  -0.1666667), wk =   0.0185185
        k(  108) = (   0.5000000  -0.3333333  -0.1666667), wk =   0.0185185
        k(  109) = (  -0.3333333   0.5000000   0.3333333), wk =   0.0185185
        k(  110) = (  -0.5000000   0.3333333  -0.3333333), wk =   0.0185185
        k(  111) = (   0.5000000  -0.3333333  -0.3333333), wk =   0.0185185
        k(  112) = (  -0.5000000   0.3333333   0.5000000), wk =   0.0185185

     Dense  grid:   543493 G-vectors     FFT dimensions: ( 108, 108, 100)

     Dynamical RAM for                 wfc:       8.64 MB

     Dynamical RAM for     wfc (w. buffer):     975.92 MB

     Dynamical RAM for           str. fact:       0.35 MB

     Dynamical RAM for           local pot:       0.00 MB

     Dynamical RAM for          nlocal pot:      27.98 MB

     Dynamical RAM for                qrad:       1.61 MB

     Dynamical RAM for          rho,v,vnew:       2.37 MB

     Dynamical RAM for               rhoin:       0.79 MB

     Dynamical RAM for            rho*nmix:       5.53 MB

     Dynamical RAM for           G-vectors:       1.47 MB

     Dynamical RAM for          h,s,v(r/c):       0.46 MB

     Dynamical RAM for          <psi|beta>:       1.98 MB

     Dynamical RAM for                 psi:      17.27 MB

     Dynamical RAM for                hpsi:      17.27 MB

     Dynamical RAM for                spsi:      17.27 MB

     Dynamical RAM for      wfcinit/wfcrot:      18.19 MB

     Dynamical RAM for           addusdens:      76.71 MB

     Dynamical RAM for          addusforce:     101.21 MB

     Dynamical RAM for         addusstress:      69.46 MB

     Estimated static dynamical RAM per process >    1018.93 MB

     Estimated max dynamical RAM per process >       1.09 GB

     Estimated total dynamical RAM >      26.25 GB

     Initial potential from superposition of free atoms

     starting charge  107.91755, renormalised to  108.00000
     Starting wfcs are  144 randomized atomic wfcs +   56 random wfcs

     total cpu time spent up to now is      380.7 secs

     Self-consistent Calculation

     iteration #  1     ecut=   100.00 Ry     beta= 0.70
     Davidson diagonalization with overlap
     ethr =  1.00E-02,  avg # of iterations =  7.0

     total cpu time spent up to now is     3431.8 secs

     total energy              =    -177.17472242 Ry
     estimated scf accuracy    <       3.02098460 Ry

     iteration #  2     ecut=   100.00 Ry     beta= 0.70
     Davidson diagonalization with overlap
     ethr =  2.80E-03,  avg # of iterations =  4.0

     total cpu time spent up to now is     4844.4 secs

     total energy              =    -173.53518830 Ry
     estimated scf accuracy    <      47.62291642 Ry

     iteration #  3     ecut=   100.00 Ry     beta= 0.70
     Davidson diagonalization with overlap
     ethr =  2.80E-03,  avg # of iterations =  2.4

     total cpu time spent up to now is     6190.6 secs

     total energy              =    -178.72324362 Ry
     estimated scf accuracy    <       1.59236144 Ry

     iteration #  4     ecut=   100.00 Ry     beta= 0.70
     Davidson diagonalization with overlap
     ethr =  1.47E-03,  avg # of iterations =  1.0

     total cpu time spent up to now is     7205.3 secs

     total energy              =    -178.95060442 Ry
     estimated scf accuracy    <       0.25234059 Ry

     iteration #  5     ecut=   100.00 Ry     beta= 0.70
     Davidson diagonalization with overlap
     ethr =  2.34E-04,  avg # of iterations =  2.9

     total cpu time spent up to now is     8418.8 secs

     total energy              =    -178.97451374 Ry
     estimated scf accuracy    <       0.23821759 Ry

     iteration #  6     ecut=   100.00 Ry     beta= 0.70
     Davidson diagonalization with overlap
     ethr =  2.21E-04,  avg # of iterations =  1.7

     total cpu time spent up to now is     9521.5 secs

     total energy              =    -179.00495703 Ry
     estimated scf accuracy    <       0.01965554 Ry

     iteration #  7     ecut=   100.00 Ry     beta= 0.70
     Davidson diagonalization with overlap
     c_bands:  1 eigenvalues not converged
     ethr =  1.82E-05,  avg # of iterations = 14.6

     total cpu time spent up to now is    10963.0 secs

     total energy              =    -179.00669127 Ry
     estimated scf accuracy    <       0.01001403 Ry

     iteration #  8     ecut=   100.00 Ry     beta= 0.70
     Davidson diagonalization with overlap
     ethr =  9.27E-06,  avg # of iterations =  2.0

     total cpu time spent up to now is    12123.6 secs

     total energy              =    -179.00805657 Ry
     estimated scf accuracy    <       0.00445856 Ry

     iteration #  9     ecut=   100.00 Ry     beta= 0.70
     Davidson diagonalization with overlap
     ethr =  4.13E-06,  avg # of iterations =  1.5

     total cpu time spent up to now is    13195.9 secs

     total energy              =    -179.00854863 Ry
     estimated scf accuracy    <       0.00021522 Ry

     iteration # 10     ecut=   100.00 Ry     beta= 0.70
     Davidson diagonalization with overlap
     ethr =  1.99E-07,  avg # of iterations =  2.0

     total cpu time spent up to now is    14342.2 secs

     total energy              =    -179.00857398 Ry
     estimated scf accuracy    <       0.00009641 Ry

     iteration # 11     ecut=   100.00 Ry     beta= 0.70
     Davidson diagonalization with overlap
     ethr =  8.93E-08,  avg # of iterations =  1.1

     total cpu time spent up to now is    15362.0 secs

     total energy              =    -179.00858396 Ry
     estimated scf accuracy    <       0.00009772 Ry

     iteration # 12     ecut=   100.00 Ry     beta= 0.70
     Davidson diagonalization with overlap
     ethr =  8.93E-08,  avg # of iterations =  1.0

     total cpu time spent up to now is    16375.3 secs

     total energy              =    -179.00859487 Ry
     estimated scf accuracy    <       0.00000282 Ry

     iteration # 13     ecut=   100.00 Ry     beta= 0.70
     Davidson diagonalization with overlap
     ethr =  2.61E-09,  avg # of iterations =  1.0

     total cpu time spent up to now is    17385.9 secs

     total energy              =    -179.00859481 Ry
     estimated scf accuracy    <       0.00000653 Ry

     iteration # 14     ecut=   100.00 Ry     beta= 0.70
     Davidson diagonalization with overlap
     ethr =  2.61E-09,  avg # of iterations =  1.0

     total cpu time spent up to now is    18393.6 secs

     total energy              =    -179.00859538 Ry
     estimated scf accuracy    <       0.00000204 Ry

     iteration # 15     ecut=   100.00 Ry     beta= 0.70
     Davidson diagonalization with overlap
     ethr =  1.89E-09,  avg # of iterations =  1.0

     total cpu time spent up to now is    19402.2 secs

     total energy              =    -179.00859561 Ry
     estimated scf accuracy    <       0.00000032 Ry

     iteration # 16     ecut=   100.00 Ry     beta= 0.70
     Davidson diagonalization with overlap
     ethr =  2.94E-10,  avg # of iterations =  1.0

     total cpu time spent up to now is    20409.4 secs

     total energy              =    -179.00859565 Ry
     estimated scf accuracy    <       0.00000011 Ry

     iteration # 17     ecut=   100.00 Ry     beta= 0.70
     Davidson diagonalization with overlap
     ethr =  1.06E-10,  avg # of iterations =  1.0

     total cpu time spent up to now is    21418.3 secs

     total energy              =    -179.00859566 Ry
     estimated scf accuracy    <       0.00000004 Ry

     iteration # 18     ecut=   100.00 Ry     beta= 0.70
     Davidson diagonalization with overlap
     ethr =  3.88E-11,  avg # of iterations =  1.0

     total cpu time spent up to now is    22426.6 secs

     total energy              =    -179.00859566 Ry
     estimated scf accuracy    <       0.00000002 Ry

     iteration # 19     ecut=   100.00 Ry     beta= 0.70
     Davidson diagonalization with overlap
     ethr =  2.21E-11,  avg # of iterations =  1.0

     total cpu time spent up to now is    23435.1 secs

     total energy              =    -179.00859566 Ry
     estimated scf accuracy    <       0.00000001 Ry

     iteration # 20     ecut=   100.00 Ry     beta= 0.70
     Davidson diagonalization with overlap
     ethr =  1.10E-11,  avg # of iterations =  1.0

     total cpu time spent up to now is    24445.0 secs

     End of self-consistent calculation

          k = 0.0000 0.0000 0.0000 ( 67965 PWs)   bands (ev):

    -4.3042  -2.5148  -2.3819  -2.1384  -1.7041  -1.6260  -1.3699  -0.7258
    -0.5643  -0.2184   0.0260   0.2172   0.4166   0.5706   0.7295   0.8627
     0.9832   1.4308   1.5413   1.8747   2.3110   2.3649   2.5824   2.6610
     2.9495   2.9882   3.1576   3.6209   3.7404   3.9748   4.3672   4.5727
     4.8708   5.0774   5.1475   5.3769   5.5686   5.6206   5.7210   5.8208
     5.9047   6.0439   6.0866   6.3168   6.4237   6.4405   6.6031   6.6627
     6.7676   6.8168   6.9923   7.0565   7.1421   7.1935   7.3964   7.5775
     7.6145   7.7175   7.8115   7.8995   7.9983   8.0776   8.2100   8.3687
     8.4204   8.5221   8.6774   8.7689   8.8368   8.9877   9.1588   9.1832
     9.2964   9.4691   9.6095   9.7207   9.8596   9.9833  10.1541  10.1894
    10.4240  11.3198  11.4307  11.6173  11.7274  11.9974  12.0564  12.2358
    12.3278  12.4399  12.7395  12.8798  12.8955  12.9729  13.0731  13.1075
    13.1568  13.2571  13.4863  13.5573  13.6621  13.7065  13.7726  13.8103
    13.9119  14.0176  14.1515  14.2932  14.3246  14.4249  14.5043  14.5800
    14.6259  14.7222  14.8366  14.8714  14.9401  15.1192  15.1979  15.2596
    15.3027  15.4297  15.4696  15.4939  15.5610  15.7035  15.8110  15.8816
    15.9118  16.0335  16.1090  16.2539  16.3997  16.4372  16.5750  16.6575
    16.8415  16.9133  17.0104  17.0665  17.1498  17.3590  17.4047  17.5178
    17.5666  17.6766  17.7519  17.7924  17.9352  17.9483  18.0484  18.1575
    18.2518  18.4217  18.4687  18.5297  18.5878  18.7651  18.8672  18.9093
    19.0888  19.2339  19.3022  19.5187  19.6263  19.6827  19.8275  19.8945
    19.9137  19.9898  20.0274  20.1986  20.2949  20.3938  20.5209  20.6688
    20.7231  20.8570  20.8678  20.9793  21.0676  21.1230  21.2653  21.4021
    21.5233  21.5675  21.5962  21.7155  21.7737  21.7894  21.9805  22.0157
    22.1294  22.2440  22.2623  22.3723  22.4390  22.5511  22.6683  22.7039

     occupation numbers 
     1.0000   1.0000   1.0000   1.0000   1.0000   1.0000   1.0000   1.0000
     1.0000   1.0000   1.0000   1.0000   1.0000   1.0000   1.0000   1.0000
     1.0000   1.0000   1.0000   1.0000   1.0000   1.0000   1.0000   1.0000
     1.0000   1.0000   1.0000   1.0000   1.0000   1.0000   1.0000   1.0000
     1.0000   1.0000   1.0000   1.0000   1.0000   1.0000   1.0000   1.0000
     1.0000   1.0000   1.0000   1.0000   1.0000   1.0000   1.0000   1.0000
     1.0000   1.0000   1.0000   1.0000   1.0000   1.0000   0.9949   0.1504
     0.0405   0.0008   0.0000   0.0000   0.0000   0.0000   0.0000   0.0000
     0.0000   0.0000   0.0000   0.0000   0.0000   0.0000   0.0000   0.0000
     0.0000   0.0000   0.0000   0.0000   0.0000   0.0000   0.0000   0.0000
     0.0000   0.0000   0.0000   0.0000   0.0000   0.0000   0.0000   0.0000
     0.0000   0.0000   0.0000   0.0000   0.0000   0.0000   0.0000   0.0000
     0.0000   0.0000   0.0000   0.0000   0.0000   0.0000   0.0000   0.0000
     0.0000   0.0000   0.0000   0.0000   0.0000   0.0000   0.0000   0.0000
     0.0000   0.0000   0.0000   0.0000   0.0000   0.0000   0.0000   0.0000
     0.0000   0.0000   0.0000   0.0000   0.0000   0.0000   0.0000   0.0000
     0.0000   0.0000   0.0000   0.0000   0.0000   0.0000   0.0000   0.0000
     0.0000   0.0000   0.0000   0.0000   0.0000   0.0000   0.0000   0.0000
     0.0000   0.0000   0.0000   0.0000   0.0000   0.0000   0.0000   0.0000
     0.0000   0.0000   0.0000   0.0000   0.0000   0.0000   0.0000   0.0000
     0.0000   0.0000   0.0000   0.0000   0.0000   0.0000   0.0000   0.0000
     0.0000   0.0000   0.0000   0.0000   0.0000   0.0000   0.0000   0.0000
     0.0000   0.0000   0.0000   0.0000   0.0000   0.0000   0.0000   0.0000
     0.0000   0.0000   0.0000   0.0000   0.0000   0.0000   0.0000   0.0000
     0.0000   0.0000   0.0000   0.0000   0.0000   0.0000   0.0000   0.0000

          k = 0.0000 0.0000 0.1768 ( 67937 PWs)   bands (ev):

    -4.2660  -2.7086  -2.3221  -2.1379  -1.7426  -1.5708  -1.1532  -0.7641
    -0.6920  -0.3765  -0.0170   0.1444   0.3199   0.6237   0.7992   1.0879
     1.2965   1.4659   1.6156   1.8250   2.0825   2.2664   2.4032   2.8549
     3.2128   3.3007   3.4415   3.5950   3.7453   3.9151   4.0802   4.5807
     4.8250   4.9656   5.0805   5.1418   5.3740   5.4943   5.5663   5.7053
     5.8297   5.9202   6.0126   6.1006   6.3020   6.3736   6.4435   6.5872
     6.7543   6.8226   6.9420   7.0568   7.1692   7.3138   7.3821   7.5635
     7.6705   7.7586   7.8802   7.9636   8.0448   8.1978   8.2560   8.4149
     8.5370   8.6080   8.7318   8.7863   8.8965   9.0226   9.2108   9.3211
     9.3989   9.5710   9.8456  10.0846  10.2988  10.3360  10.7023  10.8441
    10.9815  11.0843  11.2578  11.3072  11.5294  11.6777  11.7135  11.9855
    12.1355  12.3451  12.5161  12.6030  12.7111  12.8560  12.9689  13.0564
    13.1009  13.2359  13.3183  13.4200  13.4952  13.5762  13.6000  13.7558
    13.8365  13.9678  14.0374  14.1417  14.3030  14.4470  14.5406  14.5987
    14.7326  14.7894  14.8760  14.9532  15.0404  15.1452  15.1996  15.2511
    15.3899  15.4382  15.5235  15.6478  15.6856  15.7354  15.9118  15.9759
    16.0315  16.1287  16.1923  16.3067  16.3762  16.4996  16.6252  16.6656
    16.7279  16.8316  16.8996  17.0418  17.1095  17.1985  17.2455  17.3405
    17.5906  17.6710  17.7321  17.8094  17.9259  18.0210  18.1146  18.1803
    18.2840  18.3862  18.5772  18.6251  18.7587  18.8065  18.9813  19.0334
    19.0998  19.1703  19.2588  19.2938  19.4951  19.6555  19.7361  19.8618
    19.9724  20.0079  20.1643  20.2827  20.4029  20.4780  20.5635  20.6108
    20.7124  20.8477  20.9230  21.0253  21.1007  21.1605  21.2510  21.2981
    21.3928  21.4703  21.5366  21.6274  21.7296  21.8259  21.9234  21.9934
    22.0787  22.1321  22.2439  22.3222  22.4054  22.5117  22.5784  22.6693

     occupation numbers 
     1.0000   1.0000   1.0000   1.0000   1.0000   1.0000   1.0000   1.0000
     1.0000   1.0000   1.0000   1.0000   1.0000   1.0000   1.0000   1.0000
     1.0000   1.0000   1.0000   1.0000   1.0000   1.0000   1.0000   1.0000
     1.0000   1.0000   1.0000   1.0000   1.0000   1.0000   1.0000   1.0000
     1.0000   1.0000   1.0000   1.0000   1.0000   1.0000   1.0000   1.0000
     1.0000   1.0000   1.0000   1.0000   1.0000   1.0000   1.0000   1.0000
     1.0000   1.0000   1.0000   1.0000   1.0000   0.9998   0.9971   0.2328
     0.0048   0.0002   0.0000   0.0000   0.0000   0.0000   0.0000   0.0000
     0.0000   0.0000   0.0000   0.0000   0.0000   0.0000   0.0000   0.0000
     0.0000   0.0000   0.0000   0.0000   0.0000   0.0000   0.0000   0.0000
     0.0000   0.0000   0.0000   0.0000   0.0000   0.0000   0.0000   0.0000
     0.0000   0.0000   0.0000   0.0000   0.0000   0.0000   0.0000   0.0000
     0.0000   0.0000   0.0000   0.0000   0.0000   0.0000   0.0000   0.0000
     0.0000   0.0000   0.0000   0.0000   0.0000   0.0000   0.0000   0.0000
     0.0000   0.0000   0.0000   0.0000   0.0000   0.0000   0.0000   0.0000
     0.0000   0.0000   0.0000   0.0000   0.0000   0.0000   0.0000   0.0000
     0.0000   0.0000   0.0000   0.0000   0.0000   0.0000   0.0000   0.0000
     0.0000   0.0000   0.0000   0.0000   0.0000   0.0000   0.0000   0.0000
     0.0000   0.0000   0.0000   0.0000   0.0000   0.0000   0.0000   0.0000
     0.0000   0.0000   0.0000   0.0000   0.0000   0.0000   0.0000   0.0000
     0.0000   0.0000   0.0000   0.0000   0.0000   0.0000   0.0000   0.0000
     0.0000   0.0000   0.0000   0.0000   0.0000   0.0000   0.0000   0.0000
     0.0000   0.0000   0.0000   0.0000   0.0000   0.0000   0.0000   0.0000
     0.0000   0.0000   0.0000   0.0000   0.0000   0.0000   0.0000   0.0000
     0.0000   0.0000   0.0000   0.0000   0.0000   0.0000   0.0000   0.0000

          k = 0.0000 0.0000 0.3536 ( 68005 PWs)   bands (ev):

    -4.1728  -3.0265  -2.2021  -2.0765  -1.6684  -1.5159  -1.2308  -1.0847
    -0.6938  -0.2066  -0.1232   0.1018   0.4361   0.6783   0.8493   1.0212
     1.3989   1.4850   1.7742   1.9903   2.1457   2.3199   2.6089   2.8459
     3.3389   3.5660   3.6945   3.8541   3.9168   4.0173   4.1616   4.3113
     4.4242   4.5268   4.6798   4.8804   5.0481   5.1950   5.3183   5.3660
     5.5797   5.7335   6.0024   6.0721   6.1852   6.2596   6.3983   6.5526
     6.6173   6.7246   6.8776   6.9648   6.9976   7.1486   7.3165   7.4756
     7.5480   7.7515   7.8696   7.9365   8.0600   8.2322   8.3546   8.5268
     8.8340   9.1911   9.2477   9.4109   9.4789   9.6022   9.7015   9.8340
     9.9483  10.0660  10.1797  10.3619  10.4982  10.6264  10.7443  10.9181
    11.0535  11.2014  11.2693  11.4464  11.5310  11.6551  11.7411  11.7946
    11.9685  12.0104  12.1539  12.3043  12.3884  12.4563  12.5597  12.7391
    12.7533  12.8742  12.9047  13.0090  13.1320  13.2536  13.3582  13.4696
    13.5318  13.6617  13.9310  14.1454  14.2538  14.3623  14.5183  14.5909
    14.6902  14.8924  14.9143  14.9870  15.0636  15.1433  15.2362  15.2779
    15.3694  15.5032  15.5525  15.7244  15.8105  15.8599  15.9686  16.0006
    16.1381  16.2258  16.2952  16.3462  16.4729  16.5514  16.6913  16.8032
    16.8678  16.9606  17.0026  17.1094  17.2051  17.3244  17.3909  17.4924
    17.5938  17.6802  17.8330  17.9213  17.9597  18.0246  18.1103  18.2334
    18.3233  18.4534  18.5352  18.5828  18.6902  18.8674  18.9813  19.0942
    19.2466  19.3284  19.3720  19.4392  19.5665  19.6502  19.6992  19.7900
    19.8738  19.9306  19.9776  20.0592  20.1513  20.2015  20.4039  20.4842
    20.5416  20.6369  20.7120  20.8564  20.9569  21.0431  21.1227  21.2521
    21.2777  21.3952  21.4913  21.5708  21.6491  21.6818  21.7979  21.9269
    22.0371  22.0895  22.1342  22.2165  22.3329  22.4028  22.5205  22.5890

     occupation numbers 
     1.0000   1.0000   1.0000   1.0000   1.0000   1.0000   1.0000   1.0000
     1.0000   1.0000   1.0000   1.0000   1.0000   1.0000   1.0000   1.0000
     1.0000   1.0000   1.0000   1.0000   1.0000   1.0000   1.0000   1.0000
     1.0000   1.0000   1.0000   1.0000   1.0000   1.0000   1.0000   1.0000
     1.0000   1.0000   1.0000   1.0000   1.0000   1.0000   1.0000   1.0000
     1.0000   1.0000   1.0000   1.0000   1.0000   1.0000   1.0000   1.0000
     1.0000   1.0000   1.0000   1.0000   1.0000   1.0000   0.9998   0.9009
     0.3566   0.0002   0.0000   0.0000   0.0000   0.0000   0.0000   0.0000
     0.0000   0.0000   0.0000   0.0000   0.0000   0.0000   0.0000   0.0000
     0.0000   0.0000   0.0000   0.0000   0.0000   0.0000   0.0000   0.0000
     0.0000   0.0000   0.0000   0.0000   0.0000   0.0000   0.0000   0.0000
     0.0000   0.0000   0.0000   0.0000   0.0000   0.0000   0.0000   0.0000
     0.0000   0.0000   0.0000   0.0000   0.0000   0.0000   0.0000   0.0000
     0.0000   0.0000   0.0000   0.0000   0.0000   0.0000   0.0000   0.0000
     0.0000   0.0000   0.0000   0.0000   0.0000   0.0000   0.0000   0.0000
     0.0000   0.0000   0.0000   0.0000   0.0000   0.0000   0.0000   0.0000
     0.0000   0.0000   0.0000   0.0000   0.0000   0.0000   0.0000   0.0000
     0.0000   0.0000   0.0000   0.0000   0.0000   0.0000   0.0000   0.0000
     0.0000   0.0000   0.0000   0.0000   0.0000   0.0000   0.0000   0.0000
     0.0000   0.0000   0.0000   0.0000   0.0000   0.0000   0.0000   0.0000
     0.0000   0.0000   0.0000   0.0000   0.0000   0.0000   0.0000   0.0000
     0.0000   0.0000   0.0000   0.0000   0.0000   0.0000   0.0000   0.0000
     0.0000   0.0000   0.0000   0.0000   0.0000   0.0000   0.0000   0.0000
     0.0000   0.0000   0.0000   0.0000   0.0000   0.0000   0.0000   0.0000
     0.0000   0.0000   0.0000   0.0000   0.0000   0.0000   0.0000   0.0000

          k = 0.0000 0.0000-0.5303 ( 67920 PWs)   bands (ev):

    -4.1126  -3.1756  -2.1086  -2.0431  -1.6308  -1.4520  -1.3524  -1.2145
    -0.8737  -0.2409   0.1581   0.2584   0.5225   0.6612   0.9264   0.9328
     1.2089   1.2838   1.5614   2.0252   2.7069   2.8665   2.9104   3.0662
     3.1236   3.3266   3.5029   3.6643   3.8489   3.9728   4.1211   4.2326
     4.5465   4.6631   4.7259   4.8826   4.9727   5.0200   5.1452   5.3107
     5.3982   5.5256   5.8473   6.0260   6.1315   6.2117   6.2963   6.4513
     6.6002   6.6501   6.7494   6.7880   6.9032   7.0141   7.2166   7.4043
     7.4521   7.7770   7.8518   8.1820   8.4663   8.5595   8.6801   8.8109
     8.9912   9.0466   9.1931   9.4495   9.6901   9.8880   9.9775  10.0983
    10.2753  10.3180  10.4617  10.5266  10.6593  10.8476  10.8906  10.9910
    11.0065  11.1295  11.1857  11.2230  11.4965  11.6492  11.6838  11.8366
    11.9012  11.9592  12.0079  12.0763  12.1561  12.2911  12.3998  12.4912
    12.5882  12.6757  12.8682  13.0415  13.0774  13.1339  13.3096  13.4347
    13.6169  13.6735  13.8062  13.9702  14.0494  14.1755  14.3030  14.3523
    14.4528  14.5132  14.6948  14.8756  15.0486  15.2052  15.3197  15.3324
    15.4522  15.5341  15.6201  15.7608  15.8073  15.9303  16.0068  16.1403
    16.3081  16.3456  16.4168  16.4501  16.5341  16.6928  16.7165  16.8205
    16.9260  16.9365  17.0287  17.1962  17.3314  17.4618  17.5877  17.7027
    17.7586  17.8100  17.8614  17.9679  18.0763  18.1149  18.2177  18.2818
    18.3421  18.4180  18.5344  18.6711  18.6904  18.7712  18.9961  19.0311
    19.1575  19.2460  19.2811  19.3626  19.4362  19.6048  19.6948  19.7612
    19.8537  19.9398  19.9923  20.0727  20.1393  20.1941  20.2824  20.3439
    20.4244  20.4977  20.5726  20.6829  20.8077  20.8788  20.9300  21.0835
    21.1988  21.2018  21.3104  21.4065  21.5575  21.6198  21.6860  21.7905
    21.8577  21.9664  22.0582  22.1136  22.2420  22.4189  22.5558  22.5888

     occupation numbers 
     1.0000   1.0000   1.0000   1.0000   1.0000   1.0000   1.0000   1.0000
     1.0000   1.0000   1.0000   1.0000   1.0000   1.0000   1.0000   1.0000
     1.0000   1.0000   1.0000   1.0000   1.0000   1.0000   1.0000   1.0000
     1.0000   1.0000   1.0000   1.0000   1.0000   1.0000   1.0000   1.0000
     1.0000   1.0000   1.0000   1.0000   1.0000   1.0000   1.0000   1.0000
     1.0000   1.0000   1.0000   1.0000   1.0000   1.0000   1.0000   1.0000
     1.0000   1.0000   1.0000   1.0000   1.0000   1.0000   1.0000   0.9931
     0.9576   0.0001   0.0000   0.0000   0.0000   0.0000   0.0000   0.0000
     0.0000   0.0000   0.0000   0.0000   0.0000   0.0000   0.0000   0.0000
     0.0000   0.0000   0.0000   0.0000   0.0000   0.0000   0.0000   0.0000
     0.0000   0.0000   0.0000   0.0000   0.0000   0.0000   0.0000   0.0000
     0.0000   0.0000   0.0000   0.0000   0.0000   0.0000   0.0000   0.0000
     0.0000   0.0000   0.0000   0.0000   0.0000   0.0000   0.0000   0.0000
     0.0000   0.0000   0.0000   0.0000   0.0000   0.0000   0.0000   0.0000
     0.0000   0.0000   0.0000   0.0000   0.0000   0.0000   0.0000   0.0000
     0.0000   0.0000   0.0000   0.0000   0.0000   0.0000   0.0000   0.0000
     0.0000   0.0000   0.0000   0.0000   0.0000   0.0000   0.0000   0.0000
     0.0000   0.0000   0.0000   0.0000   0.0000   0.0000   0.0000   0.0000
     0.0000   0.0000   0.0000   0.0000   0.0000   0.0000   0.0000   0.0000
     0.0000   0.0000   0.0000   0.0000   0.0000   0.0000   0.0000   0.0000
     0.0000   0.0000   0.0000   0.0000   0.0000   0.0000   0.0000   0.0000
     0.0000   0.0000   0.0000   0.0000   0.0000   0.0000   0.0000   0.0000
     0.0000   0.0000   0.0000   0.0000   0.0000   0.0000   0.0000   0.0000
     0.0000   0.0000   0.0000   0.0000   0.0000   0.0000   0.0000   0.0000
     0.0000   0.0000   0.0000   0.0000   0.0000   0.0000   0.0000   0.0000

          k = 0.0000 0.1667 0.0000 ( 67953 PWs)   bands (ev):

    -4.2776  -2.6820  -2.4084  -2.0405  -1.6941  -1.5943  -1.1413  -0.9231
    -0.6737  -0.3358   0.1460   0.2660   0.3467   0.5446   0.7919   0.9990
     1.1883   1.4457   1.6506   1.8009   2.0241   2.3142   2.5311   2.7164
     2.9858   3.1915   3.3411   3.5427   3.8587   4.0857   4.2991   4.5416
     4.5813   4.8623   4.9973   5.1710   5.2710   5.4056   5.6091   5.7070
     5.8573   6.0738   6.2347   6.3238   6.3995   6.5787   6.6454   6.8048
     6.8409   6.8752   6.9768   7.1204   7.1706   7.2459   7.3473   7.3899
     7.6019   7.7380   7.8159   7.8996   7.9782   8.1169   8.2408   8.3911
     8.5541   8.6922   8.8091   8.8894   8.9758   9.1795   9.2271   9.3850
     9.4729   9.7126   9.7435   9.8617  10.2015  10.2707  10.3234  10.4388
    10.5863  10.8994  11.1125  11.2528  11.5221  11.7699  12.0159  12.0757
    12.1690  12.3518  12.4287  12.5387  12.7078  12.7722  12.8626  13.0491
    13.0932  13.2492  13.3574  13.3734  13.4437  13.6015  13.7409  13.8388
    13.9000  13.9664  14.0928  14.1428  14.2512  14.3816  14.4829  14.5282
    14.5836  14.7267  14.8323  15.0116  15.0336  15.1360  15.1592  15.2945
    15.3413  15.4192  15.4952  15.6528  15.6931  15.8086  15.9186  16.0114
    16.1099  16.1760  16.2652  16.3258  16.3880  16.5417  16.5922  16.7303
    16.7985  16.9559  17.0673  17.2114  17.2416  17.3095  17.4558  17.4985
    17.5441  17.6598  17.7974  17.8959  18.0309  18.0842  18.2057  18.2913
    18.3620  18.4339  18.5501  18.7145  18.8334  18.9168  18.9898  19.0489
    19.1812  19.2503  19.2668  19.3870  19.5172  19.6106  19.6597  19.7861
    19.8833  20.0014  20.0572  20.2108  20.3121  20.4481  20.4621  20.5140
    20.6644  20.7802  20.8267  20.9114  21.0053  21.0681  21.1149  21.2173
    21.2796  21.4073  21.4710  21.6065  21.6839  21.7972  21.9042  21.9689
    22.0755  22.1683  22.2349  22.3891  22.4722  22.5521  22.5687  22.7182

     occupation numbers 
     1.0000   1.0000   1.0000   1.0000   1.0000   1.0000   1.0000   1.0000
     1.0000   1.0000   1.0000   1.0000   1.0000   1.0000   1.0000   1.0000
     1.0000   1.0000   1.0000   1.0000   1.0000   1.0000   1.0000   1.0000
     1.0000   1.0000   1.0000   1.0000   1.0000   1.0000   1.0000   1.0000
     1.0000   1.0000   1.0000   1.0000   1.0000   1.0000   1.0000   1.0000
     1.0000   1.0000   1.0000   1.0000   1.0000   1.0000   1.0000   1.0000
     1.0000   1.0000   1.0000   1.0000   1.0000   1.0000   0.9992   0.9960
     0.0643   0.0004   0.0000   0.0000   0.0000   0.0000   0.0000   0.0000
     0.0000   0.0000   0.0000   0.0000   0.0000   0.0000   0.0000   0.0000
     0.0000   0.0000   0.0000   0.0000   0.0000   0.0000   0.0000   0.0000
     0.0000   0.0000   0.0000   0.0000   0.0000   0.0000   0.0000   0.0000
     0.0000   0.0000   0.0000   0.0000   0.0000   0.0000   0.0000   0.0000
     0.0000   0.0000   0.0000   0.0000   0.0000   0.0000   0.0000   0.0000
     0.0000   0.0000   0.0000   0.0000   0.0000   0.0000   0.0000   0.0000
     0.0000   0.0000   0.0000   0.0000   0.0000   0.0000   0.0000   0.0000
     0.0000   0.0000   0.0000   0.0000   0.0000   0.0000   0.0000   0.0000
     0.0000   0.0000   0.0000   0.0000   0.0000   0.0000   0.0000   0.0000
     0.0000   0.0000   0.0000   0.0000   0.0000   0.0000   0.0000   0.0000
     0.0000   0.0000   0.0000   0.0000   0.0000   0.0000   0.0000   0.0000
     0.0000   0.0000   0.0000   0.0000   0.0000   0.0000   0.0000   0.0000
     0.0000   0.0000   0.0000   0.0000   0.0000   0.0000   0.0000   0.0000
     0.0000   0.0000   0.0000   0.0000   0.0000   0.0000   0.0000   0.0000
     0.0000   0.0000   0.0000   0.0000   0.0000   0.0000   0.0000   0.0000
     0.0000   0.0000   0.0000   0.0000   0.0000   0.0000   0.0000   0.0000
     0.0000   0.0000   0.0000   0.0000   0.0000   0.0000   0.0000   0.0000

          k = 0.0000 0.1667 0.1768 ( 67946 PWs)   bands (ev):

    -4.2400  -2.7116  -2.5539  -1.9404  -1.7763  -1.5238  -1.1381  -0.8050
    -0.7286  -0.3876  -0.1067   0.1881   0.3589   0.7370   0.9593   1.1567
     1.1774   1.4388   1.6238   1.8538   2.1607   2.3615   2.4998   2.7017
     2.9490   3.2770   3.5686   3.6241   3.7187   3.9727   4.2584   4.5086
     4.6307   4.7388   4.9543   5.1516   5.2933   5.4150   5.4316   5.6105
     5.7187   5.8054   6.0096   6.1202   6.2773   6.4055   6.4909   6.6151
     6.6662   6.8652   7.0137   7.0697   7.1822   7.3075   7.4442   7.5290
     7.6626   7.7851   7.9449   8.0255   8.1412   8.2691   8.3123   8.6043
     8.6386   8.6802   8.7708   8.9352   9.1179   9.3084   9.3582   9.5656
     9.6673   9.7919   9.9465  10.1123  10.2524  10.4059  10.5166  10.6691
    10.7843  10.8994  11.1467  11.3495  11.4438  11.6802  11.7975  11.8818
    11.9775  12.1860  12.2812  12.4234  12.5377  12.7546  12.8797  12.9094
    13.0371  13.1488  13.2377  13.3141  13.3517  13.4465  13.6383  13.6839
    13.8774  13.9619  14.1331  14.2120  14.2687  14.4130  14.4740  14.5284
    14.6659  14.7990  14.9139  14.9315  14.9630  15.0802  15.1564  15.1812
    15.2506  15.4493  15.5281  15.6358  15.7096  15.7501  15.8827  15.9476
    16.0727  16.1312  16.2315  16.3303  16.4007  16.5724  16.6225  16.7487
    16.8858  17.0114  17.0801  17.1776  17.1916  17.4100  17.4632  17.5508
    17.6043  17.6730  17.7803  17.8656  17.9306  18.0957  18.1930  18.2881
    18.3184  18.4641  18.5965  18.6389  18.7426  18.8845  18.9808  19.0484
    19.1518  19.2716  19.3843  19.4756  19.5668  19.6422  19.7171  19.8175
    19.9603  20.0326  20.0976  20.2117  20.2744  20.3714  20.4373  20.5287
    20.6370  20.6634  20.8110  20.9300  20.9972  21.0575  21.1312  21.1797
    21.2614  21.4035  21.5733  21.6723  21.7745  21.8127  21.9473  21.9738
    22.0707  22.1473  22.2028  22.3132  22.4068  22.5747  22.6239  22.7055

     occupation numbers 
     1.0000   1.0000   1.0000   1.0000   1.0000   1.0000   1.0000   1.0000
     1.0000   1.0000   1.0000   1.0000   1.0000   1.0000   1.0000   1.0000
     1.0000   1.0000   1.0000   1.0000   1.0000   1.0000   1.0000   1.0000
     1.0000   1.0000   1.0000   1.0000   1.0000   1.0000   1.0000   1.0000
     1.0000   1.0000   1.0000   1.0000   1.0000   1.0000   1.0000   1.0000
     1.0000   1.0000   1.0000   1.0000   1.0000   1.0000   1.0000   1.0000
     1.0000   1.0000   1.0000   1.0000   1.0000   0.9998   0.9684   0.5357
     0.0065   0.0001   0.0000   0.0000   0.0000   0.0000   0.0000   0.0000
     0.0000   0.0000   0.0000   0.0000   0.0000   0.0000   0.0000   0.0000
     0.0000   0.0000   0.0000   0.0000   0.0000   0.0000   0.0000   0.0000
     0.0000   0.0000   0.0000   0.0000   0.0000   0.0000   0.0000   0.0000
     0.0000   0.0000   0.0000   0.0000   0.0000   0.0000   0.0000   0.0000
     0.0000   0.0000   0.0000   0.0000   0.0000   0.0000   0.0000   0.0000
     0.0000   0.0000   0.0000   0.0000   0.0000   0.0000   0.0000   0.0000
     0.0000   0.0000   0.0000   0.0000   0.0000   0.0000   0.0000   0.0000
     0.0000   0.0000   0.0000   0.0000   0.0000   0.0000   0.0000   0.0000
     0.0000   0.0000   0.0000   0.0000   0.0000   0.0000   0.0000   0.0000
     0.0000   0.0000   0.0000   0.0000   0.0000   0.0000   0.0000   0.0000
     0.0000   0.0000   0.0000   0.0000   0.0000   0.0000   0.0000   0.0000
     0.0000   0.0000   0.0000   0.0000   0.0000   0.0000   0.0000   0.0000
     0.0000   0.0000   0.0000   0.0000   0.0000   0.0000   0.0000   0.0000
     0.0000   0.0000   0.0000   0.0000   0.0000   0.0000   0.0000   0.0000
     0.0000   0.0000   0.0000   0.0000   0.0000   0.0000   0.0000   0.0000
     0.0000   0.0000   0.0000   0.0000   0.0000   0.0000   0.0000   0.0000
     0.0000   0.0000   0.0000   0.0000   0.0000   0.0000   0.0000   0.0000

          k = 0.0000 0.1667 0.3536 ( 67925 PWs)   bands (ev):

    -4.1485  -2.9947  -2.4636  -1.8936  -1.8041  -1.4872  -1.2839  -0.8425
    -0.6555  -0.3104  -0.1649   0.0386   0.4365   0.7342   0.9651   1.0810
     1.3691   1.6515   1.8099   2.0523   2.2065   2.4721   2.5639   2.7262
     3.1046   3.4384   3.5734   3.7391   3.8080   3.9369   4.1472   4.3027
     4.4853   4.6792   4.8393   4.8836   5.0270   5.0962   5.2407   5.3833
     5.5069   5.5746   5.8088   5.9174   6.0740   6.2405   6.3063   6.5072
     6.6434   6.7746   6.9207   6.9960   7.0958   7.2777   7.4220   7.5676
     7.6829   7.9270   8.0877   8.1541   8.3613   8.4337   8.6165   8.7493
     8.8552   8.9724   9.1880   9.2105   9.3710   9.5605   9.6585   9.8354
     9.9821  10.0831  10.2582  10.3914  10.4989  10.7045  10.7232  10.8665
    10.9474  11.1211  11.2338  11.3607  11.3878  11.4377  11.5429  11.7875
    11.8443  12.0152  12.0579  12.1483  12.3459  12.4899  12.6676  12.7167
    12.7788  12.8461  13.0228  13.1461  13.3097  13.4175  13.5138  13.6195
    13.6992  13.8127  13.9624  14.0536  14.1368  14.2510  14.3814  14.5053
    14.5204  14.6625  14.6929  14.8267  14.9554  15.0076  15.1002  15.1636
    15.3326  15.3899  15.5246  15.6270  15.6827  15.8362  15.8598  16.0029
    16.0718  16.1593  16.3342  16.4357  16.5964  16.6337  16.7417  16.8379
    16.9011  16.9934  17.0882  17.2564  17.3160  17.3598  17.4874  17.6021
    17.6974  17.7952  17.8637  17.9381  17.9757  18.1938  18.2198  18.3153
    18.4430  18.5230  18.6015  18.6598  18.8262  18.8717  18.9469  19.0612
    19.1437  19.2317  19.2592  19.3323  19.4427  19.6036  19.6802  19.7549
    19.8643  19.9220  19.9882  20.1048  20.1985  20.3009  20.3445  20.4359
    20.5290  20.6489  20.7653  20.8745  20.9121  21.0007  21.1134  21.1512
    21.2685  21.3803  21.4520  21.5033  21.7048  21.7554  21.8341  21.9621
    22.0454  22.1883  22.2386  22.3252  22.3999  22.5184  22.6685  22.6894

     occupation numbers 
     1.0000   1.0000   1.0000   1.0000   1.0000   1.0000   1.0000   1.0000
     1.0000   1.0000   1.0000   1.0000   1.0000   1.0000   1.0000   1.0000
     1.0000   1.0000   1.0000   1.0000   1.0000   1.0000   1.0000   1.0000
     1.0000   1.0000   1.0000   1.0000   1.0000   1.0000   1.0000   1.0000
     1.0000   1.0000   1.0000   1.0000   1.0000   1.0000   1.0000   1.0000
     1.0000   1.0000   1.0000   1.0000   1.0000   1.0000   1.0000   1.0000
     1.0000   1.0000   1.0000   1.0000   1.0000   0.9999   0.9864   0.2062
     0.0030   0.0000   0.0000   0.0000   0.0000   0.0000   0.0000   0.0000
     0.0000   0.0000   0.0000   0.0000   0.0000   0.0000   0.0000   0.0000
     0.0000   0.0000   0.0000   0.0000   0.0000   0.0000   0.0000   0.0000
     0.0000   0.0000   0.0000   0.0000   0.0000   0.0000   0.0000   0.0000
     0.0000   0.0000   0.0000   0.0000   0.0000   0.0000   0.0000   0.0000
     0.0000   0.0000   0.0000   0.0000   0.0000   0.0000   0.0000   0.0000
     0.0000   0.0000   0.0000   0.0000   0.0000   0.0000   0.0000   0.0000
     0.0000   0.0000   0.0000   0.0000   0.0000   0.0000   0.0000   0.0000
     0.0000   0.0000   0.0000   0.0000   0.0000   0.0000   0.0000   0.0000
     0.0000   0.0000   0.0000   0.0000   0.0000   0.0000   0.0000   0.0000
     0.0000   0.0000   0.0000   0.0000   0.0000   0.0000   0.0000   0.0000
     0.0000   0.0000   0.0000   0.0000   0.0000   0.0000   0.0000   0.0000
     0.0000   0.0000   0.0000   0.0000   0.0000   0.0000   0.0000   0.0000
     0.0000   0.0000   0.0000   0.0000   0.0000   0.0000   0.0000   0.0000
     0.0000   0.0000   0.0000   0.0000   0.0000   0.0000   0.0000   0.0000
     0.0000   0.0000   0.0000   0.0000   0.0000   0.0000   0.0000   0.0000
     0.0000   0.0000   0.0000   0.0000   0.0000   0.0000   0.0000   0.0000
     0.0000   0.0000   0.0000   0.0000   0.0000   0.0000   0.0000   0.0000

          k = 0.0000 0.1667-0.5303 ( 67898 PWs)   bands (ev):

    -4.0895  -3.1397  -2.3653  -1.9599  -1.7880  -1.4780  -1.2973  -0.9137
    -0.7620  -0.2938  -0.0272   0.1468   0.5262   0.5721   0.9363   1.0989
     1.3331   1.5402   1.8122   2.1730   2.5572   2.6825   2.7981   2.9315
     3.0145   3.2819   3.5537   3.6646   3.7968   3.9277   4.1414   4.2166
     4.3492   4.4815   4.6894   4.7902   4.9407   5.0977   5.1604   5.4070
     5.4578   5.5372   5.7189   5.8202   5.9883   6.0971   6.2048   6.3399
     6.5347   6.6722   6.8332   7.0700   7.1749   7.2258   7.4782   7.5104
     7.8984   7.9518   8.0593   8.2539   8.3895   8.5613   8.8249   8.9392
     9.0068   9.0869   9.1929   9.3577   9.5498   9.6986   9.8492   9.9948
    10.0627  10.2332  10.2752  10.4596  10.6286  10.7652  10.8455  10.9163
    11.0246  11.1597  11.2249  11.3218  11.4100  11.5348  11.6875  11.7302
    11.7950  11.9126  12.0549  12.2040  12.2380  12.3282  12.4901  12.5692
    12.6596  12.8567  12.9607  13.0190  13.1472  13.2615  13.3870  13.4792
    13.6472  13.7332  13.8576  14.0156  14.0707  14.1311  14.2681  14.3134
    14.4007  14.5292  14.5926  14.7805  14.8565  14.8957  15.0056  15.2136
    15.3048  15.4606  15.5403  15.5952  15.7530  15.8920  15.9616  16.0563
    16.0955  16.2152  16.3748  16.5306  16.5924  16.6792  16.8292  16.9184
    17.0663  17.1941  17.2161  17.3093  17.4153  17.4759  17.6426  17.6866
    17.7893  17.8003  17.8997  17.9481  18.0345  18.0870  18.1832  18.3406
    18.4111  18.4757  18.5559  18.7394  18.7973  18.8498  18.9625  19.0160
    19.0581  19.0955  19.2084  19.3222  19.3939  19.5154  19.5581  19.6662
    19.7626  19.8093  19.9445  19.9901  20.1026  20.1908  20.2796  20.3889
    20.5089  20.5600  20.6939  20.7855  20.8286  20.9962  21.0827  21.1347
    21.2222  21.3662  21.4731  21.5346  21.6557  21.6979  21.7788  21.9074
    22.0121  22.0917  22.2782  22.3409  22.3958  22.5630  22.6908  22.8247

     occupation numbers 
     1.0000   1.0000   1.0000   1.0000   1.0000   1.0000   1.0000   1.0000
     1.0000   1.0000   1.0000   1.0000   1.0000   1.0000   1.0000   1.0000
     1.0000   1.0000   1.0000   1.0000   1.0000   1.0000   1.0000   1.0000
     1.0000   1.0000   1.0000   1.0000   1.0000   1.0000   1.0000   1.0000
     1.0000   1.0000   1.0000   1.0000   1.0000   1.0000   1.0000   1.0000
     1.0000   1.0000   1.0000   1.0000   1.0000   1.0000   1.0000   1.0000
     1.0000   1.0000   1.0000   1.0000   1.0000   1.0000   0.8918   0.7031
     0.0000   0.0000   0.0000   0.0000   0.0000   0.0000   0.0000   0.0000
     0.0000   0.0000   0.0000   0.0000   0.0000   0.0000   0.0000   0.0000
     0.0000   0.0000   0.0000   0.0000   0.0000   0.0000   0.0000   0.0000
     0.0000   0.0000   0.0000   0.0000   0.0000   0.0000   0.0000   0.0000
     0.0000   0.0000   0.0000   0.0000   0.0000   0.0000   0.0000   0.0000
     0.0000   0.0000   0.0000   0.0000   0.0000   0.0000   0.0000   0.0000
     0.0000   0.0000   0.0000   0.0000   0.0000   0.0000   0.0000   0.0000
     0.0000   0.0000   0.0000   0.0000   0.0000   0.0000   0.0000   0.0000
     0.0000   0.0000   0.0000   0.0000   0.0000   0.0000   0.0000   0.0000
     0.0000   0.0000   0.0000   0.0000   0.0000   0.0000   0.0000   0.0000
     0.0000   0.0000   0.0000   0.0000   0.0000   0.0000   0.0000   0.0000
     0.0000   0.0000   0.0000   0.0000   0.0000   0.0000   0.0000   0.0000
     0.0000   0.0000   0.0000   0.0000   0.0000   0.0000   0.0000   0.0000
     0.0000   0.0000   0.0000   0.0000   0.0000   0.0000   0.0000   0.0000
     0.0000   0.0000   0.0000   0.0000   0.0000   0.0000   0.0000   0.0000
     0.0000   0.0000   0.0000   0.0000   0.0000   0.0000   0.0000   0.0000
     0.0000   0.0000   0.0000   0.0000   0.0000   0.0000   0.0000   0.0000
     0.0000   0.0000   0.0000   0.0000   0.0000   0.0000   0.0000   0.0000

          k = 0.0000 0.3333 0.0000 ( 67966 PWs)   bands (ev):

    -4.2166  -2.9572  -2.3540  -1.9074  -1.6743  -1.5285  -1.2251  -1.0168
    -0.6242  -0.4014   0.1384   0.1961   0.4665   0.6567   0.8345   1.0554
     1.3519   1.4377   1.7227   1.8120   2.0334   2.1825   2.4818   2.7388
     3.2879   3.4468   3.6070   3.6175   3.8131   3.9219   4.0663   4.2238
     4.3851   4.5945   4.8323   5.0004   5.0634   5.2060   5.3987   5.4794
     5.7900   5.9303   6.1044   6.1949   6.3524   6.5094   6.5872   6.7143
     6.7839   6.8746   6.9759   7.0613   7.2459   7.3312   7.4992   7.5514
     7.7125   7.7975   7.9837   8.1158   8.2302   8.4021   8.5371   8.6456
     8.6922   8.8428   8.9656   9.1743   9.2790   9.4849   9.5877   9.7186
     9.8080   9.8395  10.0710  10.0923  10.3504  10.4459  10.5678  10.6967
    10.8596  10.9404  11.0527  11.1232  11.3285  11.4546  11.5328  11.6913
    11.7522  11.9600  12.0611  12.2097  12.2975  12.4062  12.4938  12.5631
    12.7229  12.8526  12.9668  13.0612  13.1709  13.2907  13.4759  13.6175
    13.7134  13.7888  13.8627  13.9098  14.0813  14.2598  14.3555  14.5608
    14.6645  14.7548  14.8238  14.9770  15.0780  15.1617  15.3084  15.4303
    15.6001  15.6844  15.7483  15.8899  15.9081  16.0560  16.1635  16.2059
    16.2721  16.4205  16.4907  16.5465  16.6401  16.7869  16.8792  16.9344
    17.0653  17.1309  17.2348  17.2914  17.4175  17.5131  17.5310  17.6514
    17.7454  17.8167  17.9028  17.9623  18.0832  18.1699  18.2517  18.3078
    18.3358  18.4595  18.5713  18.6374  18.7980  18.8549  18.9682  18.9914
    19.1240  19.2299  19.2934  19.3474  19.4707  19.5219  19.6298  19.7078
    19.8050  19.9080  20.0320  20.1467  20.2523  20.3686  20.4464  20.4998
    20.5552  20.6218  20.7694  20.7871  20.9995  21.0692  21.1863  21.2492
    21.2858  21.3782  21.4905  21.6004  21.6292  21.7497  21.8340  21.8606
    22.0145  22.0665  22.1713  22.3199  22.4676  22.5287  22.6117  22.6983

     occupation numbers 
     1.0000   1.0000   1.0000   1.0000   1.0000   1.0000   1.0000   1.0000
     1.0000   1.0000   1.0000   1.0000   1.0000   1.0000   1.0000   1.0000
     1.0000   1.0000   1.0000   1.0000   1.0000   1.0000   1.0000   1.0000
     1.0000   1.0000   1.0000   1.0000   1.0000   1.0000   1.0000   1.0000
     1.0000   1.0000   1.0000   1.0000   1.0000   1.0000   1.0000   1.0000
     1.0000   1.0000   1.0000   1.0000   1.0000   1.0000   1.0000   1.0000
     1.0000   1.0000   1.0000   1.0000   1.0000   0.9996   0.7851   0.3267
     0.0010   0.0000   0.0000   0.0000   0.0000   0.0000   0.0000   0.0000
     0.0000   0.0000   0.0000   0.0000   0.0000   0.0000   0.0000   0.0000
     0.0000   0.0000   0.0000   0.0000   0.0000   0.0000   0.0000   0.0000
     0.0000   0.0000   0.0000   0.0000   0.0000   0.0000   0.0000   0.0000
     0.0000   0.0000   0.0000   0.0000   0.0000   0.0000   0.0000   0.0000
     0.0000   0.0000   0.0000   0.0000   0.0000   0.0000   0.0000   0.0000
     0.0000   0.0000   0.0000   0.0000   0.0000   0.0000   0.0000   0.0000
     0.0000   0.0000   0.0000   0.0000   0.0000   0.0000   0.0000   0.0000
     0.0000   0.0000   0.0000   0.0000   0.0000   0.0000   0.0000   0.0000
     0.0000   0.0000   0.0000   0.0000   0.0000   0.0000   0.0000   0.0000
     0.0000   0.0000   0.0000   0.0000   0.0000   0.0000   0.0000   0.0000
     0.0000   0.0000   0.0000   0.0000   0.0000   0.0000   0.0000   0.0000
     0.0000   0.0000   0.0000   0.0000   0.0000   0.0000   0.0000   0.0000
     0.0000   0.0000   0.0000   0.0000   0.0000   0.0000   0.0000   0.0000
     0.0000   0.0000   0.0000   0.0000   0.0000   0.0000   0.0000   0.0000
     0.0000   0.0000   0.0000   0.0000   0.0000   0.0000   0.0000   0.0000
     0.0000   0.0000   0.0000   0.0000   0.0000   0.0000   0.0000   0.0000
     0.0000   0.0000   0.0000   0.0000   0.0000   0.0000   0.0000   0.0000

          k = 0.0000 0.3333 0.1768 ( 67930 PWs)   bands (ev):

    -4.1803  -2.9162  -2.5488  -1.8846  -1.7403  -1.5343  -1.1906  -0.9043
    -0.5879  -0.3354  -0.1175   0.1329   0.4717   0.7311   0.9678   1.1545
     1.2473   1.5460   1.7114   1.9044   2.2193   2.4152   2.5420   2.8377
     3.1119   3.2072   3.4333   3.6677   3.7620   3.8504   3.9971   4.2582
     4.4482   4.7023   4.7869   4.8847   5.0576   5.2558   5.2924   5.4805
     5.6559   5.8262   5.8756   6.0586   6.1557   6.3303   6.3968   6.5546
     6.7387   6.9002   7.0365   7.1494   7.2039   7.3964   7.5896   7.6552
     7.7824   8.0249   8.1309   8.2694   8.3070   8.5046   8.5554   8.6943
     8.8739   9.0034   9.1553   9.2710   9.3050   9.4998   9.6087   9.7058
     9.7779   9.9606  10.0298  10.1596  10.3229  10.5127  10.6102  10.7021
    10.7942  10.8750  10.9472  11.1880  11.2582  11.4861  11.5564  11.6648
    11.8184  11.8947  12.0346  12.0563  12.3223  12.3595  12.5394  12.6877
    12.7421  12.7869  13.0436  13.1282  13.2629  13.4013  13.4927  13.6270
    13.7540  13.8752  13.9499  14.1045  14.2072  14.2645  14.3206  14.5091
    14.6362  14.6751  14.7487  14.8506  14.9547  15.0595  15.1846  15.2928
    15.3841  15.5690  15.6192  15.6559  15.8284  15.8852  15.9775  16.1382
    16.2883  16.3432  16.4160  16.4680  16.5513  16.6723  16.7797  16.8698
    16.9563  16.9962  17.2049  17.3071  17.3769  17.4553  17.5018  17.6059
    17.6995  17.7691  17.9122  18.0919  18.1075  18.2319  18.2852  18.3856
    18.4237  18.5322  18.5713  18.7207  18.7914  18.8706  19.0752  19.1124
    19.2157  19.3095  19.3576  19.4539  19.5226  19.6025  19.6852  19.7809
    19.9059  19.9719  20.0983  20.2194  20.2670  20.3288  20.4008  20.4824
    20.5597  20.6725  20.7814  20.8584  20.9050  20.9762  21.0943  21.2136
    21.2947  21.3693  21.5375  21.5943  21.6571  21.7237  21.8070  21.9083
    21.9717  22.0940  22.1340  22.3104  22.3993  22.4655  22.5103  22.6897

     occupation numbers 
     1.0000   1.0000   1.0000   1.0000   1.0000   1.0000   1.0000   1.0000
     1.0000   1.0000   1.0000   1.0000   1.0000   1.0000   1.0000   1.0000
     1.0000   1.0000   1.0000   1.0000   1.0000   1.0000   1.0000   1.0000
     1.0000   1.0000   1.0000   1.0000   1.0000   1.0000   1.0000   1.0000
     1.0000   1.0000   1.0000   1.0000   1.0000   1.0000   1.0000   1.0000
     1.0000   1.0000   1.0000   1.0000   1.0000   1.0000   1.0000   1.0000
     1.0000   1.0000   1.0000   1.0000   1.0000   0.9949   0.0998   0.0087
     0.0001   0.0000   0.0000   0.0000   0.0000   0.0000   0.0000   0.0000
     0.0000   0.0000   0.0000   0.0000   0.0000   0.0000   0.0000   0.0000
     0.0000   0.0000   0.0000   0.0000   0.0000   0.0000   0.0000   0.0000
     0.0000   0.0000   0.0000   0.0000   0.0000   0.0000   0.0000   0.0000
     0.0000   0.0000   0.0000   0.0000   0.0000   0.0000   0.0000   0.0000
     0.0000   0.0000   0.0000   0.0000   0.0000   0.0000   0.0000   0.0000
     0.0000   0.0000   0.0000   0.0000   0.0000   0.0000   0.0000   0.0000
     0.0000   0.0000   0.0000   0.0000   0.0000   0.0000   0.0000   0.0000
     0.0000   0.0000   0.0000   0.0000   0.0000   0.0000   0.0000   0.0000
     0.0000   0.0000   0.0000   0.0000   0.0000   0.0000   0.0000   0.0000
     0.0000   0.0000   0.0000   0.0000   0.0000   0.0000   0.0000   0.0000
     0.0000   0.0000   0.0000   0.0000   0.0000   0.0000   0.0000   0.0000
     0.0000   0.0000   0.0000   0.0000   0.0000   0.0000   0.0000   0.0000
     0.0000   0.0000   0.0000   0.0000   0.0000   0.0000   0.0000   0.0000
     0.0000   0.0000   0.0000   0.0000   0.0000   0.0000   0.0000   0.0000
     0.0000   0.0000   0.0000   0.0000   0.0000   0.0000   0.0000   0.0000
     0.0000   0.0000   0.0000   0.0000   0.0000   0.0000   0.0000   0.0000
     0.0000   0.0000   0.0000   0.0000   0.0000   0.0000   0.0000   0.0000

          k = 0.0000 0.3333 0.3536 ( 67932 PWs)   bands (ev):

    -4.0930  -2.9299  -2.7193  -2.0230  -1.7922  -1.4720  -1.1948  -0.7266
    -0.5640  -0.4031  -0.1821   0.1809   0.3287   0.6315   1.0772   1.2989
     1.4761   1.8236   1.8312   2.1295   2.2741   2.5525   2.6449   2.8441
     3.0525   3.1903   3.3664   3.5565   3.6965   3.8237   4.0412   4.1714
     4.2973   4.5048   4.6117   4.7447   4.8843   5.0253   5.2206   5.3407
     5.4958   5.6016   5.7544   5.8042   6.0204   6.0780   6.2854   6.3873
     6.5182   6.9930   7.1552   7.2533   7.5156   7.6149   7.7021   7.8217
     7.9251   8.0664   8.2150   8.3293   8.4407   8.6968   8.7902   8.8502
     8.9779   9.1143   9.2253   9.3640   9.5157   9.5926   9.6906   9.8062
     9.9020  10.0201  10.0808  10.3040  10.3364  10.5605  10.6730  10.6901
    10.8151  10.9439  11.0471  11.1426  11.3021  11.3595  11.4856  11.6125
    11.7305  11.9089  12.0958  12.1547  12.3692  12.3980  12.4929  12.7783
    12.8642  12.9594  13.0592  13.1846  13.3006  13.4112  13.5343  13.6341
    13.7720  13.8178  13.8920  14.0110  14.1062  14.2077  14.2613  14.3311
    14.4055  14.5858  14.7216  14.8013  14.8954  15.0085  15.0837  15.1638
    15.2306  15.3251  15.4197  15.5232  15.6143  15.6829  15.8320  15.9119
    16.1127  16.2156  16.2522  16.3836  16.4994  16.6447  16.7077  16.7723
    16.9009  17.0022  17.0683  17.2506  17.2688  17.4166  17.5675  17.6369
    17.7496  17.8210  17.8860  17.9670  18.0579  18.2015  18.2737  18.3428
    18.4680  18.5367  18.6172  18.7423  18.8347  18.9191  18.9793  19.1108
    19.2548  19.2942  19.4085  19.4902  19.5998  19.6715  19.7649  19.8003
    19.8676  19.9362  20.0555  20.1196  20.2698  20.2978  20.4597  20.5370
    20.7115  20.7547  20.7852  20.8230  20.9812  21.0452  21.2136  21.2564
    21.3328  21.4085  21.5199  21.6886  21.7651  21.8685  21.9267  22.0372
    22.1849  22.2302  22.3319  22.4268  22.5753  22.6319  22.7312  22.7834

     occupation numbers 
     1.0000   1.0000   1.0000   1.0000   1.0000   1.0000   1.0000   1.0000
     1.0000   1.0000   1.0000   1.0000   1.0000   1.0000   1.0000   1.0000
     1.0000   1.0000   1.0000   1.0000   1.0000   1.0000   1.0000   1.0000
     1.0000   1.0000   1.0000   1.0000   1.0000   1.0000   1.0000   1.0000
     1.0000   1.0000   1.0000   1.0000   1.0000   1.0000   1.0000   1.0000
     1.0000   1.0000   1.0000   1.0000   1.0000   1.0000   1.0000   1.0000
     1.0000   1.0000   1.0000   1.0000   0.6597   0.0400   0.0014   0.0000
     0.0000   0.0000   0.0000   0.0000   0.0000   0.0000   0.0000   0.0000
     0.0000   0.0000   0.0000   0.0000   0.0000   0.0000   0.0000   0.0000
     0.0000   0.0000   0.0000   0.0000   0.0000   0.0000   0.0000   0.0000
     0.0000   0.0000   0.0000   0.0000   0.0000   0.0000   0.0000   0.0000
     0.0000   0.0000   0.0000   0.0000   0.0000   0.0000   0.0000   0.0000
     0.0000   0.0000   0.0000   0.0000   0.0000   0.0000   0.0000   0.0000
     0.0000   0.0000   0.0000   0.0000   0.0000   0.0000   0.0000   0.0000
     0.0000   0.0000   0.0000   0.0000   0.0000   0.0000   0.0000   0.0000
     0.0000   0.0000   0.0000   0.0000   0.0000   0.0000   0.0000   0.0000
     0.0000   0.0000   0.0000   0.0000   0.0000   0.0000   0.0000   0.0000
     0.0000   0.0000   0.0000   0.0000   0.0000   0.0000   0.0000   0.0000
     0.0000   0.0000   0.0000   0.0000   0.0000   0.0000   0.0000   0.0000
     0.0000   0.0000   0.0000   0.0000   0.0000   0.0000   0.0000   0.0000
     0.0000   0.0000   0.0000   0.0000   0.0000   0.0000   0.0000   0.0000
     0.0000   0.0000   0.0000   0.0000   0.0000   0.0000   0.0000   0.0000
     0.0000   0.0000   0.0000   0.0000   0.0000   0.0000   0.0000   0.0000
     0.0000   0.0000   0.0000   0.0000   0.0000   0.0000   0.0000   0.0000
     0.0000   0.0000   0.0000   0.0000   0.0000   0.0000   0.0000   0.0000

          k = 0.0000 0.3333-0.5303 ( 67894 PWs)   bands (ev):

    -4.0378  -3.0480  -2.6438  -2.1732  -1.7668  -1.4337  -1.1898  -0.7812
    -0.4951  -0.4502  -0.0836   0.0024   0.3684   0.7964   1.0611   1.2282
     1.6853   1.8420   1.9328   2.1700   2.3820   2.4726   2.6378   2.9275
     3.1145   3.2923   3.4733   3.5831   3.7140   3.8515   3.9581   4.0981
     4.2379   4.3039   4.4213   4.5743   4.7226   4.8254   5.0174   5.2647
     5.4378   5.5926   5.6653   5.7790   5.9208   6.1521   6.3130   6.5429
     6.7165   6.9137   7.0045   7.1668   7.4168   7.6323   7.7478   7.8619
     8.0449   8.2433   8.3658   8.5325   8.5807   8.7031   8.8616   8.9205
     8.9948   9.1783   9.2713   9.3468   9.4304   9.6243   9.7064   9.8065
     9.8999  10.0372  10.1752  10.2641  10.4086  10.4888  10.6531  10.7614
    10.8298  10.9230  11.0561  11.1983  11.3901  11.5174  11.6802  11.8034
    11.9033  12.0097  12.1315  12.1977  12.3756  12.4684  12.5112  12.6442
    12.7313  12.8695  13.0192  13.0996  13.2258  13.3600  13.4123  13.5126
    13.6393  13.7234  13.8255  13.8720  14.0566  14.1776  14.2803  14.3509
    14.4297  14.5531  14.6666  14.7582  14.8487  14.9021  15.0038  15.1419
    15.1869  15.3099  15.4013  15.4655  15.6265  15.7298  15.8365  15.9001
    15.9753  16.1192  16.1898  16.4481  16.5828  16.6784  16.7656  16.8704
    16.8998  17.0386  17.1077  17.1834  17.3708  17.4353  17.4677  17.5917
    17.7095  17.7797  17.8173  17.9271  18.0160  18.1431  18.2713  18.3155
    18.4197  18.5745  18.5989  18.6660  18.7212  18.8363  18.8700  18.9844
    19.0841  19.1568  19.2997  19.3535  19.5148  19.6141  19.6644  19.7863
    19.9224  19.9979  20.0339  20.2143  20.2659  20.3833  20.4302  20.5426
    20.6869  20.7838  20.9038  20.9911  21.1077  21.2369  21.3320  21.4130
    21.5168  21.5658  21.6940  21.7991  21.8607  21.9400  22.0314  22.0707
    22.2589  22.2867  22.3961  22.4807  22.5042  22.6461  22.7197  22.7894

     occupation numbers 
     1.0000   1.0000   1.0000   1.0000   1.0000   1.0000   1.0000   1.0000
     1.0000   1.0000   1.0000   1.0000   1.0000   1.0000   1.0000   1.0000
     1.0000   1.0000   1.0000   1.0000   1.0000   1.0000   1.0000   1.0000
     1.0000   1.0000   1.0000   1.0000   1.0000   1.0000   1.0000   1.0000
     1.0000   1.0000   1.0000   1.0000   1.0000   1.0000   1.0000   1.0000
     1.0000   1.0000   1.0000   1.0000   1.0000   1.0000   1.0000   1.0000
     1.0000   1.0000   1.0000   1.0000   0.9888   0.0208   0.0002   0.0000
     0.0000   0.0000   0.0000   0.0000   0.0000   0.0000   0.0000   0.0000
     0.0000   0.0000   0.0000   0.0000   0.0000   0.0000   0.0000   0.0000
     0.0000   0.0000   0.0000   0.0000   0.0000   0.0000   0.0000   0.0000
     0.0000   0.0000   0.0000   0.0000   0.0000   0.0000   0.0000   0.0000
     0.0000   0.0000   0.0000   0.0000   0.0000   0.0000   0.0000   0.0000
     0.0000   0.0000   0.0000   0.0000   0.0000   0.0000   0.0000   0.0000
[...]
     atom    3 type  1   force =     0.72158922    0.00605730   -0.65665025
     atom    4 type  1   force =    -0.39191916    0.42341426   -0.53405185
     atom    5 type  1   force =    -0.91423359    0.86629632   -0.54263982
     atom    6 type  1   force =     0.05507013    0.65751074    0.03560064
     atom    7 type  1   force =     0.38603377   -0.39953209    0.45977250
     atom    8 type  1   force =     0.47222011   -0.41933930   -0.82026654
     atom    9 type  1   force =    -1.01472864   -0.25990032   -0.19528467
     atom   10 type  1   force =    -0.47008761    0.34586673    0.41070008
     atom   11 type  1   force =     0.95563839    1.04428161    0.94856554
     atom   12 type  1   force =    -0.19112644    0.29818383    0.44168279
     atom   13 type  1   force =     1.13080926   -0.63114936   -0.00625993
     atom   14 type  1   force =    -0.64871426    0.11545293    0.56510792
     atom   15 type  1   force =    -0.21408224    0.01930963   -0.52953478
     atom   16 type  1   force =     0.73967449    0.15795676   -0.60789675
     atom   17 type  1   force =    -0.38300840    0.97091532    0.29132738
     atom   18 type  1   force =     0.65139024   -0.32340035   -0.14630769
     atom   19 type  1   force =     0.54631613   -0.63633484   -0.02157020
     atom   20 type  1   force =     0.48052510    0.14948786   -0.43173604
     atom   21 type  1   force =     0.04313206   -0.29054807    0.35310197
     atom   22 type  1   force =     0.03262590    1.05207874   -0.02745434
     atom   23 type  1   force =    -0.87646270    0.64029263   -0.92896871
     atom   24 type  1   force =    -0.37635559   -1.00556928    0.13248228
     atom   25 type  1   force =     0.32380820   -0.48570306   -0.68873652
     atom   26 type  1   force =     0.29668404   -0.48102454    0.80508778
     atom   27 type  1   force =    -0.32007395    0.43383337    0.05208569
     atom   28 type  1   force =    -0.56930891   -1.34337842   -0.99226830
     atom   29 type  1   force =    -0.11138472   -0.32093536   -0.15392668
     atom   30 type  1   force =    -0.46319344   -0.28904472    0.43814326
     atom   31 type  1   force =     0.53985911   -0.81195816    0.14998019
     atom   32 type  1   force =    -0.26923652   -0.73381078    1.09619998
     atom   33 type  1   force =    -0.36518002    0.74981794    0.46249773
     atom   34 type  1   force =    -0.26040028   -0.78605134    0.59449524
     atom   35 type  1   force =    -0.16552501    0.22495373   -0.25566458
     atom   36 type  1   force =     0.56636334    0.18317591    0.48005252
     The local contribution  to forces
     atom    1 type  1   force =    -0.32614336   -0.15277854    0.28655452
     atom    2 type  1   force =     0.24201711   -0.73553068   -0.09424030
     atom    3 type  1   force =    -0.72301110   -0.00722174    0.64217232
     atom    4 type  1   force =     0.36982575   -0.41013031    0.49978642
     atom    5 type  1   force =     0.88980682   -0.88280543    0.56346602
     atom    6 type  1   force =    -0.06027551   -0.66475883   -0.11405197
     atom    7 type  1   force =    -0.39014257    0.40247378   -0.44840853
     atom    8 type  1   force =    -0.48536755    0.41218948    0.81976530
     atom    9 type  1   force =     1.00953424    0.26120694    0.19183234
     atom   10 type  1   force =     0.47177974   -0.37226155   -0.38382402
     atom   11 type  1   force =    -0.96722462   -1.03420779   -0.92915878
     atom   12 type  1   force =     0.18741061   -0.30578321   -0.45280785
     atom   13 type  1   force =    -1.08033555    0.59519477   -0.00387655
     atom   14 type  1   force =     0.63903191   -0.12009674   -0.56486633
     atom   15 type  1   force =     0.22391380   -0.00482212    0.53193636
     atom   16 type  1   force =    -0.73570911   -0.14843397    0.60970052
     atom   17 type  1   force =     0.36248706   -0.96437170   -0.27812360
     atom   18 type  1   force =    -0.63473750    0.32378864    0.14460938
     atom   19 type  1   force =    -0.52329788    0.61786751    0.00951464
     atom   20 type  1   force =    -0.43143157   -0.14476023    0.48431795
     atom   21 type  1   force =    -0.03771734    0.29806621   -0.33106862
     atom   22 type  1   force =    -0.01384809   -1.01164619   -0.00654627
     atom   23 type  1   force =     0.84301144   -0.56890474    0.91054152
     atom   24 type  1   force =     0.34270077    0.98662202   -0.12987686
     atom   25 type  1   force =    -0.32921367    0.49194799    0.67748095
     atom   26 type  1   force =    -0.28713698    0.47849539   -0.77370555
     atom   27 type  1   force =     0.31837942   -0.42875975   -0.05029943
     atom   28 type  1   force =     0.57171586    1.26880202    1.00382467
     atom   29 type  1   force =     0.13217545    0.30616289    0.15649457
     atom   30 type  1   force =     0.45880317    0.30284655   -0.43732499
     atom   31 type  1   force =    -0.54559084    0.79443335   -0.14709160
     atom   32 type  1   force =     0.29024704    0.74397430   -1.07932939
     atom   33 type  1   force =     0.37388717   -0.71473081   -0.46715460
     atom   34 type  1   force =     0.26884764    0.77095555   -0.58010863
     atom   35 type  1   force =     0.17288684   -0.24203912    0.24278942
     atom   36 type  1   force =    -0.57609333   -0.16971020   -0.47561515
     The core correction contribution to forces
     atom    1 type  1   force =    -0.01055516   -0.00966680    0.00745530
     atom    2 type  1   force =     0.01006885    0.00562545   -0.00504378
     atom    3 type  1   force =     0.00205995    0.00721008   -0.00223146
     atom    4 type  1   force =     0.00892840   -0.00096080    0.02084063
     atom    5 type  1   force =     0.01461535   -0.01267792    0.00615673
     atom    6 type  1   force =     0.01120255   -0.00094422    0.01721069
     atom    7 type  1   force =    -0.00330514    0.00345689    0.00061258
     atom    8 type  1   force =    -0.00630369    0.00576434    0.01370274
     atom    9 type  1   force =     0.01261141   -0.00112748    0.00764356
     atom   10 type  1   force =    -0.00950385    0.01376330   -0.01166718
     atom   11 type  1   force =    -0.00356804   -0.01757237   -0.01292871
     atom   12 type  1   force =     0.01159934   -0.00476156   -0.00356052
     atom   13 type  1   force =    -0.02314224    0.01761143    0.00101943
     atom   14 type  1   force =     0.00658634    0.00085268   -0.00453084
     atom   15 type  1   force =     0.00252460    0.00052242    0.00321898
     atom   16 type  1   force =    -0.01218060   -0.00554312    0.00784190
     atom   17 type  1   force =     0.00716959   -0.01487405   -0.00573661
     atom   18 type  1   force =    -0.01279850    0.00074577    0.00133504
     atom   19 type  1   force =    -0.00463501    0.00295761    0.00202349
     atom   20 type  1   force =    -0.01132787    0.00288615   -0.00741125
     atom   21 type  1   force =    -0.00323505   -0.00634697   -0.01361931
     atom   22 type  1   force =    -0.00471057   -0.01949354    0.00384450
     atom   23 type  1   force =     0.01116734   -0.03091584    0.01601272
     atom   24 type  1   force =     0.01428169    0.01565167    0.00436253
     atom   25 type  1   force =     0.00037265   -0.00019859   -0.00507255
     atom   26 type  1   force =    -0.00130625    0.00490479   -0.00468388
     atom   27 type  1   force =    -0.00411812    0.00019730   -0.00196828
     atom   28 type  1   force =     0.01115768    0.02595028    0.00669114
     atom   29 type  1   force =    -0.00807019    0.00928850   -0.00404393
     atom   30 type  1   force =     0.00881270   -0.00277601   -0.01181784
     atom   31 type  1   force =    -0.00717936    0.01169015   -0.00415577
     atom   32 type  1   force =     0.00210372   -0.00194837   -0.01315210
     atom   33 type  1   force =    -0.00603272   -0.00688732   -0.00381718
     atom   34 type  1   force =    -0.00105657    0.00151798    0.00409434
     atom   35 type  1   force =     0.00801909    0.00001328   -0.00378307
     atom   36 type  1   force =    -0.00782834    0.00242949   -0.00160483
     The Hubbard contrib.    to forces
     atom    1 type  1   force =     0.00000000    0.00000000    0.00000000
     atom    2 type  1   force =     0.00000000    0.00000000    0.00000000
     atom    3 type  1   force =     0.00000000    0.00000000    0.00000000
     atom    4 type  1   force =     0.00000000    0.00000000    0.00000000
     atom    5 type  1   force =     0.00000000    0.00000000    0.00000000
     atom    6 type  1   force =     0.00000000    0.00000000    0.00000000
     atom    7 type  1   force =     0.00000000    0.00000000    0.00000000
     atom    8 type  1   force =     0.00000000    0.00000000    0.00000000
     atom    9 type  1   force =     0.00000000    0.00000000    0.00000000
     atom   10 type  1   force =     0.00000000    0.00000000    0.00000000
     atom   11 type  1   force =     0.00000000    0.00000000    0.00000000
     atom   12 type  1   force =     0.00000000    0.00000000    0.00000000
     atom   13 type  1   force =     0.00000000    0.00000000    0.00000000
     atom   14 type  1   force =     0.00000000    0.00000000    0.00000000
     atom   15 type  1   force =     0.00000000    0.00000000    0.00000000
     atom   16 type  1   force =     0.00000000    0.00000000    0.00000000
     atom   17 type  1   force =     0.00000000    0.00000000    0.00000000
     atom   18 type  1   force =     0.00000000    0.00000000    0.00000000
     atom   19 type  1   force =     0.00000000    0.00000000    0.00000000
     atom   20 type  1   force =     0.00000000    0.00000000    0.00000000
     atom   21 type  1   force =     0.00000000    0.00000000    0.00000000
     atom   22 type  1   force =     0.00000000    0.00000000    0.00000000
     atom   23 type  1   force =     0.00000000    0.00000000    0.00000000
     atom   24 type  1   force =     0.00000000    0.00000000    0.00000000
     atom   25 type  1   force =     0.00000000    0.00000000    0.00000000
     atom   26 type  1   force =     0.00000000    0.00000000    0.00000000
     atom   27 type  1   force =     0.00000000    0.00000000    0.00000000
     atom   28 type  1   force =     0.00000000    0.00000000    0.00000000
     atom   29 type  1   force =     0.00000000    0.00000000    0.00000000
     atom   30 type  1   force =     0.00000000    0.00000000    0.00000000
     atom   31 type  1   force =     0.00000000    0.00000000    0.00000000
     atom   32 type  1   force =     0.00000000    0.00000000    0.00000000
     atom   33 type  1   force =     0.00000000    0.00000000    0.00000000
     atom   34 type  1   force =     0.00000000    0.00000000    0.00000000
     atom   35 type  1   force =     0.00000000    0.00000000    0.00000000
     atom   36 type  1   force =     0.00000000    0.00000000    0.00000000
     The SCF correction term to forces
     atom    1 type  1   force =     0.00000153    0.00000004   -0.00000667
     atom    2 type  1   force =     0.00000185    0.00000505    0.00000275
     atom    3 type  1   force =     0.00000124   -0.00000192   -0.00000118
     atom    4 type  1   force =    -0.00000037    0.00000239   -0.00000002
     atom    5 type  1   force =     0.00000034    0.00000849   -0.00000197
     atom    6 type  1   force =     0.00000102    0.00000546    0.00000363
     atom    7 type  1   force =     0.00000076   -0.00000891    0.00000201
     atom    8 type  1   force =     0.00000560    0.00000917    0.00000107
     atom    9 type  1   force =    -0.00000388   -0.00001378    0.00000326
     atom   10 type  1   force =    -0.00000252   -0.00000016    0.00000276
     atom   11 type  1   force =     0.00000301   -0.00000081    0.00000430
     atom   12 type  1   force =     0.00000059    0.00000866    0.00000120
     atom   13 type  1   force =     0.00000326   -0.00000689    0.00000376
     atom   14 type  1   force =    -0.00000021   -0.00001036    0.00000319
     atom   15 type  1   force =     0.00000390   -0.00000892   -0.00000532
     atom   16 type  1   force =    -0.00000020    0.00000201   -0.00000100
     atom   17 type  1   force =    -0.00000023    0.00000302   -0.00000174
     atom   18 type  1   force =    -0.00000620    0.00000834   -0.00000013
     atom   19 type  1   force =     0.00000245   -0.00001113    0.00000366
     atom   20 type  1   force =    -0.00000417    0.00000467   -0.00000539
     atom   21 type  1   force =    -0.00000542   -0.00000784   -0.00000230
     atom   22 type  1   force =    -0.00000249    0.00000947    0.00000008
     atom   23 type  1   force =    -0.00000533   -0.00000838   -0.00000840
     atom   24 type  1   force =     0.00000061    0.00000130    0.00000152
     atom   25 type  1   force =    -0.00000210   -0.00000743   -0.00000684
     atom   26 type  1   force =     0.00000077   -0.00001184    0.00000871
     atom   27 type  1   force =     0.00000370   -0.00000845   -0.00000156
     atom   28 type  1   force =    -0.00000598   -0.00000859   -0.00000212
     atom   29 type  1   force =     0.00000349    0.00000987    0.00000136
     atom   30 type  1   force =     0.00000535   -0.00000278    0.00000050
     atom   31 type  1   force =    -0.00000390   -0.00000186    0.00000685
     atom   32 type  1   force =    -0.00000072   -0.00000659    0.00000504
     atom   33 type  1   force =     0.00000179    0.00001437   -0.00000024
     atom   34 type  1   force =     0.00000203   -0.00000085    0.00000103
     atom   35 type  1   force =    -0.00000532    0.00000677   -0.00000765
     atom   36 type  1   force =     0.00000078    0.00000673    0.00000557

     Total force =     0.938318     Total SCF correction =     0.000055


     Computing stress (Cartesian axis) and pressure

          total   stress  (Ry/bohr**3)                   (kbar)     P=      268.35
   0.00171215  -0.00011864   0.00017451          251.87      -17.45       25.67
  -0.00011864   0.00199118  -0.00020838          -17.45      292.91      -30.65
   0.00017451  -0.00020838   0.00176920           25.67      -30.65      260.26

     kinetic stress (kbar)   1579.36     -1.12      0.48
                               -1.12   1585.85     -3.38
                                0.48     -3.38   1581.71

     local   stress (kbar)    316.20    -67.83    -36.87
                              -67.83    334.37     71.45
                              -36.87     71.45    318.16

     nonloc. stress (kbar)   1212.23     -9.70     12.43
                               -9.70   1232.30    -12.29
                               12.43    -12.29   1205.59

     hartree stress (kbar)    135.15     33.66     -2.58
                               33.66    109.06    -12.52
                               -2.58    -12.52    150.78

     exc-cor stress (kbar)    491.37     -0.18      0.40
                               -0.18    491.74     -0.34
                                0.40     -0.34    490.89

     corecor stress (kbar)  -1306.39      1.39     -1.74
                                1.39  -1309.16      1.73
                               -1.74      1.73  -1305.18

     ewald   stress (kbar)  -2176.06     26.33     53.56
                               26.33  -2151.26    -75.31
                               53.56    -75.31  -2181.70

     hubbard stress (kbar)      0.00      0.00      0.00
                                0.00      0.00      0.00
                                0.00      0.00      0.00

     DFT-D   stress (kbar)      0.00      0.00      0.00
                                0.00      0.00      0.00
                                0.00      0.00      0.00

     XDM     stress (kbar)      0.00      0.00      0.00
                                0.00      0.00      0.00
                                0.00      0.00      0.00

     dft-nl  stress (kbar)      0.00      0.00      0.00
                                0.00      0.00      0.00
                                0.00      0.00      0.00

     TS-vdW  stress (kbar)      0.00      0.00      0.00
                                0.00      0.00      0.00
                                0.00      0.00      0.00



     Writing output data file /home/fiedle09/jobs/qe/Al36/for_fesl/Al.save/

     init_run     :    379.36s CPU    380.26s WALL (       1 calls)
     electrons    :  24033.15s CPU  24064.54s WALL (       1 calls)
     forces       :    380.28s CPU    380.39s WALL (       1 calls)
     stress       :    461.06s CPU    461.20s WALL (       1 calls)

     Called by init_run:
     wfcinit      :    378.14s CPU    378.99s WALL (       1 calls)
     wfcinit:atom :      0.38s CPU      0.38s WALL (     112 calls)
     wfcinit:wfcr :    374.98s CPU    375.82s WALL (     112 calls)
     potinit      :      0.25s CPU      0.26s WALL (       1 calls)
     hinit0       :      0.39s CPU      0.40s WALL (       1 calls)

     Called by electrons:
     c_bands      :  21681.01s CPU  21707.44s WALL (      20 calls)
     sum_band     :   2342.29s CPU   2346.82s WALL (      20 calls)
     v_of_rho     :      0.94s CPU      0.95s WALL (      21 calls)
     v_h          :      0.05s CPU      0.05s WALL (      21 calls)
     v_xc         :      0.97s CPU      0.98s WALL (      23 calls)
     newd         :      9.14s CPU      9.45s WALL (      21 calls)
     mix_rho      :      0.18s CPU      0.19s WALL (      20 calls)

     Called by c_bands:
     init_us_2    :     43.71s CPU     43.77s WALL (    4816 calls)
     cegterg      :  21527.91s CPU  21554.08s WALL (    2240 calls)

     Called by sum_band:
     sum_band:wei :      0.18s CPU      0.18s WALL (      20 calls)
     sum_band:loo :   2334.04s CPU   2338.24s WALL (      20 calls)
     sum_band:buf :      6.98s CPU      7.03s WALL (    2240 calls)
     sum_band:ini :     20.39s CPU     20.40s WALL (    2240 calls)
     sum_band:cal :   1849.21s CPU   1849.66s WALL (    2240 calls)
     sum_band:bec :     12.17s CPU     12.19s WALL (    2240 calls)
     addusdens    :      7.81s CPU      8.14s WALL (      20 calls)
     addusd:skk   :      0.06s CPU      0.07s WALL (      20 calls)
     addusd:dgemm :      6.57s CPU      6.88s WALL (      20 calls)
     addusd:qvan2 :      0.87s CPU      0.87s WALL (      20 calls)

     Called by *egterg:
     cdiaghg      :    402.26s CPU    402.86s WALL (    7747 calls)
     cegterg:over :   2525.51s CPU   2527.01s WALL (    5507 calls)
     cegterg:upda :   1119.22s CPU   1119.79s WALL (    5507 calls)
     cegterg:last :   2701.62s CPU   2702.98s WALL (    3495 calls)
     cdiaghg:chol :     27.76s CPU     27.92s WALL (    7747 calls)
     cdiaghg:inve :     28.05s CPU     28.08s WALL (    7747 calls)
     cdiaghg:para :     71.12s CPU     71.28s WALL (   15494 calls)
     h_psi        :  10279.34s CPU  10299.82s WALL (    7859 calls)
     s_psi        :   4036.33s CPU   4037.40s WALL (    7859 calls)
     g_psi        :      6.42s CPU      6.46s WALL (    5507 calls)

     Called by h_psi:
     h_psi:calbec :   4227.61s CPU   4228.81s WALL (    7859 calls)
     vloc_psi     :   2000.38s CPU   2018.16s WALL (    7859 calls)
     add_vuspsi   :   4038.31s CPU   4039.51s WALL (    7859 calls)

     General routines
     calbec       :   6545.27s CPU   6547.05s WALL (   10659 calls)
     fft          :      0.65s CPU      0.67s WALL (     256 calls)
     ffts         :      0.04s CPU      0.04s WALL (      20 calls)
     fftw         :   2264.20s CPU   2283.75s WALL ( 2493510 calls)

     Parallel routines
     fft_scatt_xy :    157.65s CPU    159.21s WALL ( 2493786 calls)
     fft_scatt_yz :    698.94s CPU    706.04s WALL ( 2493786 calls)

     PWSCF        :      7h 1m CPU      7h 2m WALL


   This run was terminated on:  18:35:15   4Mar2021            

=------------------------------------------------------------------------------=
   JOB DONE.
=------------------------------------------------------------------------------=
