
     Program PWSCF v.6.6 starts on  7Sep2021 at 16:23:14 

     This program is part of the open-source Quantum ESPRESSO suite
     for quantum simulation of materials; please cite
         "P. Giannozzi et al., J. Phys.:Condens. Matter 21 395502 (2009);
         "P. Giannozzi et al., J. Phys.:Condens. Matter 29 465901 (2017);
          URL http://www.quantum-espresso.org", 
     in publications or presentations arising from this work. More details at
     http://www.quantum-espresso.org/quote

     Parallel version (MPI), running on     1 processors

     MPI processes distributed on     1 nodes
     Fft bands division:     nmany     =       1
     Reading input from Be_snapshot2.pw.scf.in
Warning: card &CELL ignored
Warning: card / ignored

     Current dimensions of program PWSCF are:
     Max number of different atomic species (ntypx) = 10
     Max number of k-points (npk) =  40000
     Max angular momentum in pseudopotentials (lmaxx) =  3

     Subspace diagonalization in iterative solution of the eigenvalue problem:
     a serial algorithm will be used


     G-vector sticks info
     --------------------
     sticks:   dense  smooth     PW     G-vecs:    dense   smooth      PW
     Sum         199     199     85                 3669     3669     881



     bravais-lattice index     =            0
     lattice parameter (alat)  =       4.2705  a.u.
     unit-cell volume          =     106.5443 (a.u.)^3
     number of atoms/cell      =            2
     number of atomic types    =            1
     number of electrons       =         4.00
     number of Kohn-Sham states=            4
     kinetic-energy cutoff     =      40.0000  Ry
     charge density cutoff     =     160.0000  Ry
     convergence threshold     =      2.0E-02
     mixing beta               =       0.1000
     number of iterations used =            8  plain     mixing
     Exchange-correlation= PBE
                           (   1   4   3   4   0   0   0)

     celldm(1)=   4.270452  celldm(2)=   0.000000  celldm(3)=   0.000000
     celldm(4)=   0.000000  celldm(5)=   0.000000  celldm(6)=   0.000000

     crystal axes: (cart. coord. in units of alat)
               a(1) = (   1.000000   0.000000   0.000000 )  
               a(2) = (  -0.500000   0.866025   0.000000 )  
               a(3) = (   0.000000   0.000000   1.579714 )  

     reciprocal axes: (cart. coord. in units 2 pi/alat)
               b(1) = (  1.000000  0.577351 -0.000000 )  
               b(2) = (  0.000000  1.154701  0.000000 )  
               b(3) = (  0.000000 -0.000000  0.633026 )  


     PseudoPot. # 1 for Be read from file:
     /home/fiedlerl/tools/pslibrary/pbe/PSEUDOPOTENTIALS/Be.pbe-n-rrkjus_psl.1.0.0.UPF
     MD5 check sum: 734a25375992c446e1da9bf329ae4716
     Pseudo is Ultrasoft + core correction, Zval =  2.0
     Generated using "atomic" code by A. Dal Corso v.6.6
     Using radial grid of 1041 points,  4 beta functions with: 
                l(1) =   0
                l(2) =   0
                l(3) =   1
                l(4) =   1
     Q(r) pseudized with 0 coefficients 


     atomic species   valence    mass     pseudopotential
        Be             2.00     9.01218     Be( 1.00)

     No symmetry found


                                    s                        frac. trans.

      isym =  1     identity                                     

 cryst.   s( 1) = (     1          0          0      )
                  (     0          1          0      )
                  (     0          0          1      )

 cart.    s( 1) = (  1.0000000  0.0000000  0.0000000 )
                  (  0.0000000  1.0000000  0.0000000 )
                  (  0.0000000  0.0000000  1.0000000 )


   Cartesian axes

     site n.     atom                  positions (alat units)
         1           Be  tau(   1) = (   0.2320864   0.0898827   1.1864084  )
         2           Be  tau(   2) = (   0.2679135   0.7761427   0.3933053  )

   Crystallographic axes

     site n.     atom                  positions (cryst. coord.)
         1           Be  tau(   1) = (  0.2839802  0.1037876  0.7510274  )
         2           Be  tau(   2) = (  0.7160199  0.8962128  0.2489725  )

     number of k points=   512  Fermi-Dirac smearing, width (Ry)=  0.0019
                       cart. coord. in units 2pi/alat
        k(    1) = (   0.0000000   0.0000000   0.0000000), wk =   0.0039062
        k(    2) = (   0.0000000   0.0000000   0.0791282), wk =   0.0039062
        k(    3) = (   0.0000000   0.0000000   0.1582565), wk =   0.0039062
        k(    4) = (   0.0000000   0.0000000   0.2373847), wk =   0.0039062
        k(    5) = (   0.0000000   0.0000000  -0.3165130), wk =   0.0039062
        k(    6) = (   0.0000000   0.0000000  -0.2373847), wk =   0.0039062
        k(    7) = (   0.0000000   0.0000000  -0.1582565), wk =   0.0039062
        k(    8) = (   0.0000000   0.0000000  -0.0791282), wk =   0.0039062
        k(    9) = (   0.0000000   0.1443376   0.0000000), wk =   0.0039062
        k(   10) = (   0.0000000   0.1443376   0.0791282), wk =   0.0039062
        k(   11) = (   0.0000000   0.1443376   0.1582565), wk =   0.0039062
        k(   12) = (   0.0000000   0.1443376   0.2373847), wk =   0.0039062
        k(   13) = (   0.0000000   0.1443376  -0.3165130), wk =   0.0039062
        k(   14) = (   0.0000000   0.1443376  -0.2373847), wk =   0.0039062
        k(   15) = (   0.0000000   0.1443376  -0.1582565), wk =   0.0039062
        k(   16) = (   0.0000000   0.1443376  -0.0791282), wk =   0.0039062
        k(   17) = (   0.0000000   0.2886753   0.0000000), wk =   0.0039062
        k(   18) = (   0.0000000   0.2886753   0.0791282), wk =   0.0039062
        k(   19) = (   0.0000000   0.2886753   0.1582565), wk =   0.0039062
        k(   20) = (   0.0000000   0.2886753   0.2373847), wk =   0.0039062
        k(   21) = (   0.0000000   0.2886753  -0.3165130), wk =   0.0039062
        k(   22) = (   0.0000000   0.2886753  -0.2373847), wk =   0.0039062
        k(   23) = (   0.0000000   0.2886753  -0.1582565), wk =   0.0039062
        k(   24) = (   0.0000000   0.2886753  -0.0791282), wk =   0.0039062
        k(   25) = (   0.0000000   0.4330129   0.0000000), wk =   0.0039062
        k(   26) = (   0.0000000   0.4330129   0.0791282), wk =   0.0039062
        k(   27) = (   0.0000000   0.4330129   0.1582565), wk =   0.0039062
        k(   28) = (   0.0000000   0.4330129   0.2373847), wk =   0.0039062
        k(   29) = (   0.0000000   0.4330129  -0.3165130), wk =   0.0039062
        k(   30) = (   0.0000000   0.4330129  -0.2373847), wk =   0.0039062
        k(   31) = (   0.0000000   0.4330129  -0.1582565), wk =   0.0039062
        k(   32) = (   0.0000000   0.4330129  -0.0791282), wk =   0.0039062
        k(   33) = (   0.0000000  -0.5773505   0.0000000), wk =   0.0039062
        k(   34) = (   0.0000000  -0.5773505   0.0791282), wk =   0.0039062
        k(   35) = (   0.0000000  -0.5773505   0.1582565), wk =   0.0039062
        k(   36) = (   0.0000000  -0.5773505   0.2373847), wk =   0.0039062
        k(   37) = (   0.0000000  -0.5773505  -0.3165130), wk =   0.0039062
        k(   38) = (   0.0000000  -0.5773505  -0.2373847), wk =   0.0039062
        k(   39) = (   0.0000000  -0.5773505  -0.1582565), wk =   0.0039062
        k(   40) = (   0.0000000  -0.5773505  -0.0791282), wk =   0.0039062
        k(   41) = (   0.0000000  -0.4330129   0.0000000), wk =   0.0039062
        k(   42) = (   0.0000000  -0.4330129   0.0791282), wk =   0.0039062
        k(   43) = (   0.0000000  -0.4330129   0.1582565), wk =   0.0039062
        k(   44) = (   0.0000000  -0.4330129   0.2373847), wk =   0.0039062
        k(   45) = (   0.0000000  -0.4330129  -0.3165130), wk =   0.0039062
        k(   46) = (   0.0000000  -0.4330129  -0.2373847), wk =   0.0039062
        k(   47) = (   0.0000000  -0.4330129  -0.1582565), wk =   0.0039062
        k(   48) = (   0.0000000  -0.4330129  -0.0791282), wk =   0.0039062
        k(   49) = (   0.0000000  -0.2886753   0.0000000), wk =   0.0039062
        k(   50) = (   0.0000000  -0.2886753   0.0791282), wk =   0.0039062
        k(   51) = (   0.0000000  -0.2886753   0.1582565), wk =   0.0039062
        k(   52) = (   0.0000000  -0.2886753   0.2373847), wk =   0.0039062
        k(   53) = (   0.0000000  -0.2886753  -0.3165130), wk =   0.0039062
        k(   54) = (   0.0000000  -0.2886753  -0.2373847), wk =   0.0039062
        k(   55) = (   0.0000000  -0.2886753  -0.1582565), wk =   0.0039062
        k(   56) = (   0.0000000  -0.2886753  -0.0791282), wk =   0.0039062
        k(   57) = (   0.0000000  -0.1443376   0.0000000), wk =   0.0039062
        k(   58) = (   0.0000000  -0.1443376   0.0791282), wk =   0.0039062
        k(   59) = (   0.0000000  -0.1443376   0.1582565), wk =   0.0039062
        k(   60) = (   0.0000000  -0.1443376   0.2373847), wk =   0.0039062
        k(   61) = (   0.0000000  -0.1443376  -0.3165130), wk =   0.0039062
        k(   62) = (   0.0000000  -0.1443376  -0.2373847), wk =   0.0039062
        k(   63) = (   0.0000000  -0.1443376  -0.1582565), wk =   0.0039062
        k(   64) = (   0.0000000  -0.1443376  -0.0791282), wk =   0.0039062
        k(   65) = (   0.1250000   0.0721688   0.0000000), wk =   0.0039062
        k(   66) = (   0.1250000   0.0721688   0.0791282), wk =   0.0039062
        k(   67) = (   0.1250000   0.0721688   0.1582565), wk =   0.0039062
        k(   68) = (   0.1250000   0.0721688   0.2373847), wk =   0.0039062
        k(   69) = (   0.1250000   0.0721688  -0.3165130), wk =   0.0039062
        k(   70) = (   0.1250000   0.0721688  -0.2373847), wk =   0.0039062
        k(   71) = (   0.1250000   0.0721688  -0.1582565), wk =   0.0039062
        k(   72) = (   0.1250000   0.0721688  -0.0791282), wk =   0.0039062
        k(   73) = (   0.1250000   0.2165065   0.0000000), wk =   0.0039062
        k(   74) = (   0.1250000   0.2165065   0.0791282), wk =   0.0039062
        k(   75) = (   0.1250000   0.2165065   0.1582565), wk =   0.0039062
        k(   76) = (   0.1250000   0.2165065   0.2373847), wk =   0.0039062
        k(   77) = (   0.1250000   0.2165065  -0.3165130), wk =   0.0039062
        k(   78) = (   0.1250000   0.2165065  -0.2373847), wk =   0.0039062
        k(   79) = (   0.1250000   0.2165065  -0.1582565), wk =   0.0039062
        k(   80) = (   0.1250000   0.2165065  -0.0791282), wk =   0.0039062
        k(   81) = (   0.1250000   0.3608441   0.0000000), wk =   0.0039062
        k(   82) = (   0.1250000   0.3608441   0.0791282), wk =   0.0039062
        k(   83) = (   0.1250000   0.3608441   0.1582565), wk =   0.0039062
        k(   84) = (   0.1250000   0.3608441   0.2373847), wk =   0.0039062
        k(   85) = (   0.1250000   0.3608441  -0.3165130), wk =   0.0039062
        k(   86) = (   0.1250000   0.3608441  -0.2373847), wk =   0.0039062
        k(   87) = (   0.1250000   0.3608441  -0.1582565), wk =   0.0039062
        k(   88) = (   0.1250000   0.3608441  -0.0791282), wk =   0.0039062
        k(   89) = (   0.1250000   0.5051817   0.0000000), wk =   0.0039062
        k(   90) = (   0.1250000   0.5051817   0.0791282), wk =   0.0039062
        k(   91) = (   0.1250000   0.5051817   0.1582565), wk =   0.0039062
        k(   92) = (   0.1250000   0.5051817   0.2373847), wk =   0.0039062
        k(   93) = (   0.1250000   0.5051817  -0.3165130), wk =   0.0039062
        k(   94) = (   0.1250000   0.5051817  -0.2373847), wk =   0.0039062
        k(   95) = (   0.1250000   0.5051817  -0.1582565), wk =   0.0039062
        k(   96) = (   0.1250000   0.5051817  -0.0791282), wk =   0.0039062
        k(   97) = (   0.1250000  -0.5051817   0.0000000), wk =   0.0039062
        k(   98) = (   0.1250000  -0.5051817   0.0791282), wk =   0.0039062
        k(   99) = (   0.1250000  -0.5051817   0.1582565), wk =   0.0039062
        k(  100) = (   0.1250000  -0.5051817   0.2373847), wk =   0.0039062
        k(  101) = (   0.1250000  -0.5051817  -0.3165130), wk =   0.0039062
        k(  102) = (   0.1250000  -0.5051817  -0.2373847), wk =   0.0039062
        k(  103) = (   0.1250000  -0.5051817  -0.1582565), wk =   0.0039062
        k(  104) = (   0.1250000  -0.5051817  -0.0791282), wk =   0.0039062
        k(  105) = (   0.1250000  -0.3608441   0.0000000), wk =   0.0039062
        k(  106) = (   0.1250000  -0.3608441   0.0791282), wk =   0.0039062
        k(  107) = (   0.1250000  -0.3608441   0.1582565), wk =   0.0039062
        k(  108) = (   0.1250000  -0.3608441   0.2373847), wk =   0.0039062
        k(  109) = (   0.1250000  -0.3608441  -0.3165130), wk =   0.0039062
        k(  110) = (   0.1250000  -0.3608441  -0.2373847), wk =   0.0039062
        k(  111) = (   0.1250000  -0.3608441  -0.1582565), wk =   0.0039062
        k(  112) = (   0.1250000  -0.3608441  -0.0791282), wk =   0.0039062
        k(  113) = (   0.1250000  -0.2165065   0.0000000), wk =   0.0039062
        k(  114) = (   0.1250000  -0.2165065   0.0791282), wk =   0.0039062
        k(  115) = (   0.1250000  -0.2165065   0.1582565), wk =   0.0039062
        k(  116) = (   0.1250000  -0.2165065   0.2373847), wk =   0.0039062
        k(  117) = (   0.1250000  -0.2165065  -0.3165130), wk =   0.0039062
        k(  118) = (   0.1250000  -0.2165065  -0.2373847), wk =   0.0039062
        k(  119) = (   0.1250000  -0.2165065  -0.1582565), wk =   0.0039062
        k(  120) = (   0.1250000  -0.2165065  -0.0791282), wk =   0.0039062
        k(  121) = (   0.1250000  -0.0721688   0.0000000), wk =   0.0039062
        k(  122) = (   0.1250000  -0.0721688   0.0791282), wk =   0.0039062
        k(  123) = (   0.1250000  -0.0721688   0.1582565), wk =   0.0039062
        k(  124) = (   0.1250000  -0.0721688   0.2373847), wk =   0.0039062
        k(  125) = (   0.1250000  -0.0721688  -0.3165130), wk =   0.0039062
        k(  126) = (   0.1250000  -0.0721688  -0.2373847), wk =   0.0039062
        k(  127) = (   0.1250000  -0.0721688  -0.1582565), wk =   0.0039062
        k(  128) = (   0.1250000  -0.0721688  -0.0791282), wk =   0.0039062
        k(  129) = (   0.2500000   0.1443376   0.0000000), wk =   0.0039062
        k(  130) = (   0.2500000   0.1443376   0.0791282), wk =   0.0039062
        k(  131) = (   0.2500000   0.1443376   0.1582565), wk =   0.0039062
        k(  132) = (   0.2500000   0.1443376   0.2373847), wk =   0.0039062
        k(  133) = (   0.2500000   0.1443376  -0.3165130), wk =   0.0039062
        k(  134) = (   0.2500000   0.1443376  -0.2373847), wk =   0.0039062
        k(  135) = (   0.2500000   0.1443376  -0.1582565), wk =   0.0039062
        k(  136) = (   0.2500000   0.1443376  -0.0791282), wk =   0.0039062
        k(  137) = (   0.2500000   0.2886753   0.0000000), wk =   0.0039062
        k(  138) = (   0.2500000   0.2886753   0.0791282), wk =   0.0039062
        k(  139) = (   0.2500000   0.2886753   0.1582565), wk =   0.0039062
        k(  140) = (   0.2500000   0.2886753   0.2373847), wk =   0.0039062
        k(  141) = (   0.2500000   0.2886753  -0.3165130), wk =   0.0039062
        k(  142) = (   0.2500000   0.2886753  -0.2373847), wk =   0.0039062
        k(  143) = (   0.2500000   0.2886753  -0.1582565), wk =   0.0039062
        k(  144) = (   0.2500000   0.2886753  -0.0791282), wk =   0.0039062
        k(  145) = (   0.2500000   0.4330129   0.0000000), wk =   0.0039062
        k(  146) = (   0.2500000   0.4330129   0.0791282), wk =   0.0039062
        k(  147) = (   0.2500000   0.4330129   0.1582565), wk =   0.0039062
        k(  148) = (   0.2500000   0.4330129   0.2373847), wk =   0.0039062
        k(  149) = (   0.2500000   0.4330129  -0.3165130), wk =   0.0039062
        k(  150) = (   0.2500000   0.4330129  -0.2373847), wk =   0.0039062
        k(  151) = (   0.2500000   0.4330129  -0.1582565), wk =   0.0039062
        k(  152) = (   0.2500000   0.4330129  -0.0791282), wk =   0.0039062
        k(  153) = (   0.2500000   0.5773505   0.0000000), wk =   0.0039062
        k(  154) = (   0.2500000   0.5773505   0.0791282), wk =   0.0039062
        k(  155) = (   0.2500000   0.5773505   0.1582565), wk =   0.0039062
        k(  156) = (   0.2500000   0.5773505   0.2373847), wk =   0.0039062
        k(  157) = (   0.2500000   0.5773505  -0.3165130), wk =   0.0039062
        k(  158) = (   0.2500000   0.5773505  -0.2373847), wk =   0.0039062
        k(  159) = (   0.2500000   0.5773505  -0.1582565), wk =   0.0039062
        k(  160) = (   0.2500000   0.5773505  -0.0791282), wk =   0.0039062
        k(  161) = (   0.2500000  -0.4330129   0.0000000), wk =   0.0039062
        k(  162) = (   0.2500000  -0.4330129   0.0791282), wk =   0.0039062
        k(  163) = (   0.2500000  -0.4330129   0.1582565), wk =   0.0039062
        k(  164) = (   0.2500000  -0.4330129   0.2373847), wk =   0.0039062
        k(  165) = (   0.2500000  -0.4330129  -0.3165130), wk =   0.0039062
        k(  166) = (   0.2500000  -0.4330129  -0.2373847), wk =   0.0039062
        k(  167) = (   0.2500000  -0.4330129  -0.1582565), wk =   0.0039062
        k(  168) = (   0.2500000  -0.4330129  -0.0791282), wk =   0.0039062
        k(  169) = (   0.2500000  -0.2886753   0.0000000), wk =   0.0039062
        k(  170) = (   0.2500000  -0.2886753   0.0791282), wk =   0.0039062
        k(  171) = (   0.2500000  -0.2886753   0.1582565), wk =   0.0039062
        k(  172) = (   0.2500000  -0.2886753   0.2373847), wk =   0.0039062
        k(  173) = (   0.2500000  -0.2886753  -0.3165130), wk =   0.0039062
        k(  174) = (   0.2500000  -0.2886753  -0.2373847), wk =   0.0039062
        k(  175) = (   0.2500000  -0.2886753  -0.1582565), wk =   0.0039062
        k(  176) = (   0.2500000  -0.2886753  -0.0791282), wk =   0.0039062
        k(  177) = (   0.2500000  -0.1443376   0.0000000), wk =   0.0039062
        k(  178) = (   0.2500000  -0.1443376   0.0791282), wk =   0.0039062
        k(  179) = (   0.2500000  -0.1443376   0.1582565), wk =   0.0039062
        k(  180) = (   0.2500000  -0.1443376   0.2373847), wk =   0.0039062
        k(  181) = (   0.2500000  -0.1443376  -0.3165130), wk =   0.0039062
        k(  182) = (   0.2500000  -0.1443376  -0.2373847), wk =   0.0039062
        k(  183) = (   0.2500000  -0.1443376  -0.1582565), wk =   0.0039062
        k(  184) = (   0.2500000  -0.1443376  -0.0791282), wk =   0.0039062
        k(  185) = (   0.2500000   0.0000000   0.0000000), wk =   0.0039062
        k(  186) = (   0.2500000   0.0000000   0.0791282), wk =   0.0039062
        k(  187) = (   0.2500000   0.0000000   0.1582565), wk =   0.0039062
        k(  188) = (   0.2500000   0.0000000   0.2373847), wk =   0.0039062
        k(  189) = (   0.2500000   0.0000000  -0.3165130), wk =   0.0039062
        k(  190) = (   0.2500000   0.0000000  -0.2373847), wk =   0.0039062
        k(  191) = (   0.2500000   0.0000000  -0.1582565), wk =   0.0039062
        k(  192) = (   0.2500000   0.0000000  -0.0791282), wk =   0.0039062
        k(  193) = (   0.3750000   0.2165065   0.0000000), wk =   0.0039062
        k(  194) = (   0.3750000   0.2165065   0.0791282), wk =   0.0039062
        k(  195) = (   0.3750000   0.2165065   0.1582565), wk =   0.0039062
        k(  196) = (   0.3750000   0.2165065   0.2373847), wk =   0.0039062
        k(  197) = (   0.3750000   0.2165065  -0.3165130), wk =   0.0039062
        k(  198) = (   0.3750000   0.2165065  -0.2373847), wk =   0.0039062
        k(  199) = (   0.3750000   0.2165065  -0.1582565), wk =   0.0039062
        k(  200) = (   0.3750000   0.2165065  -0.0791282), wk =   0.0039062
        k(  201) = (   0.3750000   0.3608441   0.0000000), wk =   0.0039062
        k(  202) = (   0.3750000   0.3608441   0.0791282), wk =   0.0039062
        k(  203) = (   0.3750000   0.3608441   0.1582565), wk =   0.0039062
        k(  204) = (   0.3750000   0.3608441   0.2373847), wk =   0.0039062
        k(  205) = (   0.3750000   0.3608441  -0.3165130), wk =   0.0039062
        k(  206) = (   0.3750000   0.3608441  -0.2373847), wk =   0.0039062
        k(  207) = (   0.3750000   0.3608441  -0.1582565), wk =   0.0039062
        k(  208) = (   0.3750000   0.3608441  -0.0791282), wk =   0.0039062
        k(  209) = (   0.3750000   0.5051817   0.0000000), wk =   0.0039062
        k(  210) = (   0.3750000   0.5051817   0.0791282), wk =   0.0039062
        k(  211) = (   0.3750000   0.5051817   0.1582565), wk =   0.0039062
        k(  212) = (   0.3750000   0.5051817   0.2373847), wk =   0.0039062
        k(  213) = (   0.3750000   0.5051817  -0.3165130), wk =   0.0039062
        k(  214) = (   0.3750000   0.5051817  -0.2373847), wk =   0.0039062
        k(  215) = (   0.3750000   0.5051817  -0.1582565), wk =   0.0039062
        k(  216) = (   0.3750000   0.5051817  -0.0791282), wk =   0.0039062
        k(  217) = (   0.3750000   0.6495194   0.0000000), wk =   0.0039062
        k(  218) = (   0.3750000   0.6495194   0.0791282), wk =   0.0039062
        k(  219) = (   0.3750000   0.6495194   0.1582565), wk =   0.0039062
        k(  220) = (   0.3750000   0.6495194   0.2373847), wk =   0.0039062
        k(  221) = (   0.3750000   0.6495194  -0.3165130), wk =   0.0039062
        k(  222) = (   0.3750000   0.6495194  -0.2373847), wk =   0.0039062
        k(  223) = (   0.3750000   0.6495194  -0.1582565), wk =   0.0039062
        k(  224) = (   0.3750000   0.6495194  -0.0791282), wk =   0.0039062
        k(  225) = (   0.3750000  -0.3608441   0.0000000), wk =   0.0039062
        k(  226) = (   0.3750000  -0.3608441   0.0791282), wk =   0.0039062
        k(  227) = (   0.3750000  -0.3608441   0.1582565), wk =   0.0039062
        k(  228) = (   0.3750000  -0.3608441   0.2373847), wk =   0.0039062
        k(  229) = (   0.3750000  -0.3608441  -0.3165130), wk =   0.0039062
        k(  230) = (   0.3750000  -0.3608441  -0.2373847), wk =   0.0039062
        k(  231) = (   0.3750000  -0.3608441  -0.1582565), wk =   0.0039062
        k(  232) = (   0.3750000  -0.3608441  -0.0791282), wk =   0.0039062
        k(  233) = (   0.3750000  -0.2165065   0.0000000), wk =   0.0039062
        k(  234) = (   0.3750000  -0.2165065   0.0791282), wk =   0.0039062
        k(  235) = (   0.3750000  -0.2165065   0.1582565), wk =   0.0039062
        k(  236) = (   0.3750000  -0.2165065   0.2373847), wk =   0.0039062
        k(  237) = (   0.3750000  -0.2165065  -0.3165130), wk =   0.0039062
        k(  238) = (   0.3750000  -0.2165065  -0.2373847), wk =   0.0039062
        k(  239) = (   0.3750000  -0.2165065  -0.1582565), wk =   0.0039062
        k(  240) = (   0.3750000  -0.2165065  -0.0791282), wk =   0.0039062
        k(  241) = (   0.3750000  -0.0721688   0.0000000), wk =   0.0039062
        k(  242) = (   0.3750000  -0.0721688   0.0791282), wk =   0.0039062
        k(  243) = (   0.3750000  -0.0721688   0.1582565), wk =   0.0039062
        k(  244) = (   0.3750000  -0.0721688   0.2373847), wk =   0.0039062
        k(  245) = (   0.3750000  -0.0721688  -0.3165130), wk =   0.0039062
        k(  246) = (   0.3750000  -0.0721688  -0.2373847), wk =   0.0039062
        k(  247) = (   0.3750000  -0.0721688  -0.1582565), wk =   0.0039062
        k(  248) = (   0.3750000  -0.0721688  -0.0791282), wk =   0.0039062
        k(  249) = (   0.3750000   0.0721688   0.0000000), wk =   0.0039062
        k(  250) = (   0.3750000   0.0721688   0.0791282), wk =   0.0039062
        k(  251) = (   0.3750000   0.0721688   0.1582565), wk =   0.0039062
        k(  252) = (   0.3750000   0.0721688   0.2373847), wk =   0.0039062
        k(  253) = (   0.3750000   0.0721688  -0.3165130), wk =   0.0039062
        k(  254) = (   0.3750000   0.0721688  -0.2373847), wk =   0.0039062
        k(  255) = (   0.3750000   0.0721688  -0.1582565), wk =   0.0039062
        k(  256) = (   0.3750000   0.0721688  -0.0791282), wk =   0.0039062
        k(  257) = (  -0.5000000  -0.2886753   0.0000000), wk =   0.0039062
        k(  258) = (  -0.5000000  -0.2886753   0.0791282), wk =   0.0039062
        k(  259) = (  -0.5000000  -0.2886753   0.1582565), wk =   0.0039062
        k(  260) = (  -0.5000000  -0.2886753   0.2373847), wk =   0.0039062
        k(  261) = (  -0.5000000  -0.2886753  -0.3165130), wk =   0.0039062
        k(  262) = (  -0.5000000  -0.2886753  -0.2373847), wk =   0.0039062
        k(  263) = (  -0.5000000  -0.2886753  -0.1582565), wk =   0.0039062
        k(  264) = (  -0.5000000  -0.2886753  -0.0791282), wk =   0.0039062
        k(  265) = (  -0.5000000  -0.1443376   0.0000000), wk =   0.0039062
        k(  266) = (  -0.5000000  -0.1443376   0.0791282), wk =   0.0039062
        k(  267) = (  -0.5000000  -0.1443376   0.1582565), wk =   0.0039062
        k(  268) = (  -0.5000000  -0.1443376   0.2373847), wk =   0.0039062
        k(  269) = (  -0.5000000  -0.1443376  -0.3165130), wk =   0.0039062
        k(  270) = (  -0.5000000  -0.1443376  -0.2373847), wk =   0.0039062
        k(  271) = (  -0.5000000  -0.1443376  -0.1582565), wk =   0.0039062
        k(  272) = (  -0.5000000  -0.1443376  -0.0791282), wk =   0.0039062
        k(  273) = (  -0.5000000   0.0000000   0.0000000), wk =   0.0039062
        k(  274) = (  -0.5000000   0.0000000   0.0791282), wk =   0.0039062
        k(  275) = (  -0.5000000   0.0000000   0.1582565), wk =   0.0039062
        k(  276) = (  -0.5000000   0.0000000   0.2373847), wk =   0.0039062
        k(  277) = (  -0.5000000   0.0000000  -0.3165130), wk =   0.0039062
        k(  278) = (  -0.5000000   0.0000000  -0.2373847), wk =   0.0039062
        k(  279) = (  -0.5000000   0.0000000  -0.1582565), wk =   0.0039062
        k(  280) = (  -0.5000000   0.0000000  -0.0791282), wk =   0.0039062
        k(  281) = (  -0.5000000   0.1443376   0.0000000), wk =   0.0039062
        k(  282) = (  -0.5000000   0.1443376   0.0791282), wk =   0.0039062
        k(  283) = (  -0.5000000   0.1443376   0.1582565), wk =   0.0039062
        k(  284) = (  -0.5000000   0.1443376   0.2373847), wk =   0.0039062
        k(  285) = (  -0.5000000   0.1443376  -0.3165130), wk =   0.0039062
        k(  286) = (  -0.5000000   0.1443376  -0.2373847), wk =   0.0039062
        k(  287) = (  -0.5000000   0.1443376  -0.1582565), wk =   0.0039062
        k(  288) = (  -0.5000000   0.1443376  -0.0791282), wk =   0.0039062
        k(  289) = (  -0.5000000  -0.8660258   0.0000000), wk =   0.0039062
        k(  290) = (  -0.5000000  -0.8660258   0.0791282), wk =   0.0039062
        k(  291) = (  -0.5000000  -0.8660258   0.1582565), wk =   0.0039062
        k(  292) = (  -0.5000000  -0.8660258   0.2373847), wk =   0.0039062
        k(  293) = (  -0.5000000  -0.8660258  -0.3165130), wk =   0.0039062
        k(  294) = (  -0.5000000  -0.8660258  -0.2373847), wk =   0.0039062
        k(  295) = (  -0.5000000  -0.8660258  -0.1582565), wk =   0.0039062
        k(  296) = (  -0.5000000  -0.8660258  -0.0791282), wk =   0.0039062
        k(  297) = (  -0.5000000  -0.7216882   0.0000000), wk =   0.0039062
        k(  298) = (  -0.5000000  -0.7216882   0.0791282), wk =   0.0039062
        k(  299) = (  -0.5000000  -0.7216882   0.1582565), wk =   0.0039062
        k(  300) = (  -0.5000000  -0.7216882   0.2373847), wk =   0.0039062
        k(  301) = (  -0.5000000  -0.7216882  -0.3165130), wk =   0.0039062
        k(  302) = (  -0.5000000  -0.7216882  -0.2373847), wk =   0.0039062
        k(  303) = (  -0.5000000  -0.7216882  -0.1582565), wk =   0.0039062
        k(  304) = (  -0.5000000  -0.7216882  -0.0791282), wk =   0.0039062
        k(  305) = (  -0.5000000  -0.5773505   0.0000000), wk =   0.0039062
        k(  306) = (  -0.5000000  -0.5773505   0.0791282), wk =   0.0039062
        k(  307) = (  -0.5000000  -0.5773505   0.1582565), wk =   0.0039062
        k(  308) = (  -0.5000000  -0.5773505   0.2373847), wk =   0.0039062
        k(  309) = (  -0.5000000  -0.5773505  -0.3165130), wk =   0.0039062
        k(  310) = (  -0.5000000  -0.5773505  -0.2373847), wk =   0.0039062
        k(  311) = (  -0.5000000  -0.5773505  -0.1582565), wk =   0.0039062
        k(  312) = (  -0.5000000  -0.5773505  -0.0791282), wk =   0.0039062
        k(  313) = (  -0.5000000  -0.4330129   0.0000000), wk =   0.0039062
        k(  314) = (  -0.5000000  -0.4330129   0.0791282), wk =   0.0039062
        k(  315) = (  -0.5000000  -0.4330129   0.1582565), wk =   0.0039062
        k(  316) = (  -0.5000000  -0.4330129   0.2373847), wk =   0.0039062
        k(  317) = (  -0.5000000  -0.4330129  -0.3165130), wk =   0.0039062
        k(  318) = (  -0.5000000  -0.4330129  -0.2373847), wk =   0.0039062
        k(  319) = (  -0.5000000  -0.4330129  -0.1582565), wk =   0.0039062
        k(  320) = (  -0.5000000  -0.4330129  -0.0791282), wk =   0.0039062
        k(  321) = (  -0.3750000  -0.2165065   0.0000000), wk =   0.0039062
        k(  322) = (  -0.3750000  -0.2165065   0.0791282), wk =   0.0039062
        k(  323) = (  -0.3750000  -0.2165065   0.1582565), wk =   0.0039062
        k(  324) = (  -0.3750000  -0.2165065   0.2373847), wk =   0.0039062
        k(  325) = (  -0.3750000  -0.2165065  -0.3165130), wk =   0.0039062
        k(  326) = (  -0.3750000  -0.2165065  -0.2373847), wk =   0.0039062
        k(  327) = (  -0.3750000  -0.2165065  -0.1582565), wk =   0.0039062
        k(  328) = (  -0.3750000  -0.2165065  -0.0791282), wk =   0.0039062
        k(  329) = (  -0.3750000  -0.0721688   0.0000000), wk =   0.0039062
        k(  330) = (  -0.3750000  -0.0721688   0.0791282), wk =   0.0039062
        k(  331) = (  -0.3750000  -0.0721688   0.1582565), wk =   0.0039062
        k(  332) = (  -0.3750000  -0.0721688   0.2373847), wk =   0.0039062
        k(  333) = (  -0.3750000  -0.0721688  -0.3165130), wk =   0.0039062
        k(  334) = (  -0.3750000  -0.0721688  -0.2373847), wk =   0.0039062
        k(  335) = (  -0.3750000  -0.0721688  -0.1582565), wk =   0.0039062
        k(  336) = (  -0.3750000  -0.0721688  -0.0791282), wk =   0.0039062
        k(  337) = (  -0.3750000   0.0721688   0.0000000), wk =   0.0039062
        k(  338) = (  -0.3750000   0.0721688   0.0791282), wk =   0.0039062
        k(  339) = (  -0.3750000   0.0721688   0.1582565), wk =   0.0039062
        k(  340) = (  -0.3750000   0.0721688   0.2373847), wk =   0.0039062
        k(  341) = (  -0.3750000   0.0721688  -0.3165130), wk =   0.0039062
        k(  342) = (  -0.3750000   0.0721688  -0.2373847), wk =   0.0039062
        k(  343) = (  -0.3750000   0.0721688  -0.1582565), wk =   0.0039062
        k(  344) = (  -0.3750000   0.0721688  -0.0791282), wk =   0.0039062
        k(  345) = (  -0.3750000   0.2165065   0.0000000), wk =   0.0039062
        k(  346) = (  -0.3750000   0.2165065   0.0791282), wk =   0.0039062
        k(  347) = (  -0.3750000   0.2165065   0.1582565), wk =   0.0039062
        k(  348) = (  -0.3750000   0.2165065   0.2373847), wk =   0.0039062
        k(  349) = (  -0.3750000   0.2165065  -0.3165130), wk =   0.0039062
        k(  350) = (  -0.3750000   0.2165065  -0.2373847), wk =   0.0039062
        k(  351) = (  -0.3750000   0.2165065  -0.1582565), wk =   0.0039062
        k(  352) = (  -0.3750000   0.2165065  -0.0791282), wk =   0.0039062
        k(  353) = (  -0.3750000  -0.7938570   0.0000000), wk =   0.0039062
        k(  354) = (  -0.3750000  -0.7938570   0.0791282), wk =   0.0039062
        k(  355) = (  -0.3750000  -0.7938570   0.1582565), wk =   0.0039062
        k(  356) = (  -0.3750000  -0.7938570   0.2373847), wk =   0.0039062
        k(  357) = (  -0.3750000  -0.7938570  -0.3165130), wk =   0.0039062
        k(  358) = (  -0.3750000  -0.7938570  -0.2373847), wk =   0.0039062
        k(  359) = (  -0.3750000  -0.7938570  -0.1582565), wk =   0.0039062
        k(  360) = (  -0.3750000  -0.7938570  -0.0791282), wk =   0.0039062
        k(  361) = (  -0.3750000  -0.6495194   0.0000000), wk =   0.0039062
        k(  362) = (  -0.3750000  -0.6495194   0.0791282), wk =   0.0039062
        k(  363) = (  -0.3750000  -0.6495194   0.1582565), wk =   0.0039062
        k(  364) = (  -0.3750000  -0.6495194   0.2373847), wk =   0.0039062
        k(  365) = (  -0.3750000  -0.6495194  -0.3165130), wk =   0.0039062
        k(  366) = (  -0.3750000  -0.6495194  -0.2373847), wk =   0.0039062
        k(  367) = (  -0.3750000  -0.6495194  -0.1582565), wk =   0.0039062
        k(  368) = (  -0.3750000  -0.6495194  -0.0791282), wk =   0.0039062
        k(  369) = (  -0.3750000  -0.5051817   0.0000000), wk =   0.0039062
        k(  370) = (  -0.3750000  -0.5051817   0.0791282), wk =   0.0039062
        k(  371) = (  -0.3750000  -0.5051817   0.1582565), wk =   0.0039062
        k(  372) = (  -0.3750000  -0.5051817   0.2373847), wk =   0.0039062
        k(  373) = (  -0.3750000  -0.5051817  -0.3165130), wk =   0.0039062
        k(  374) = (  -0.3750000  -0.5051817  -0.2373847), wk =   0.0039062
        k(  375) = (  -0.3750000  -0.5051817  -0.1582565), wk =   0.0039062
        k(  376) = (  -0.3750000  -0.5051817  -0.0791282), wk =   0.0039062
        k(  377) = (  -0.3750000  -0.3608441   0.0000000), wk =   0.0039062
        k(  378) = (  -0.3750000  -0.3608441   0.0791282), wk =   0.0039062
        k(  379) = (  -0.3750000  -0.3608441   0.1582565), wk =   0.0039062
        k(  380) = (  -0.3750000  -0.3608441   0.2373847), wk =   0.0039062
        k(  381) = (  -0.3750000  -0.3608441  -0.3165130), wk =   0.0039062
        k(  382) = (  -0.3750000  -0.3608441  -0.2373847), wk =   0.0039062
        k(  383) = (  -0.3750000  -0.3608441  -0.1582565), wk =   0.0039062
        k(  384) = (  -0.3750000  -0.3608441  -0.0791282), wk =   0.0039062
        k(  385) = (  -0.2500000  -0.1443376   0.0000000), wk =   0.0039062
        k(  386) = (  -0.2500000  -0.1443376   0.0791282), wk =   0.0039062
        k(  387) = (  -0.2500000  -0.1443376   0.1582565), wk =   0.0039062
        k(  388) = (  -0.2500000  -0.1443376   0.2373847), wk =   0.0039062
        k(  389) = (  -0.2500000  -0.1443376  -0.3165130), wk =   0.0039062
        k(  390) = (  -0.2500000  -0.1443376  -0.2373847), wk =   0.0039062
        k(  391) = (  -0.2500000  -0.1443376  -0.1582565), wk =   0.0039062
        k(  392) = (  -0.2500000  -0.1443376  -0.0791282), wk =   0.0039062
        k(  393) = (  -0.2500000   0.0000000   0.0000000), wk =   0.0039062
        k(  394) = (  -0.2500000   0.0000000   0.0791282), wk =   0.0039062
        k(  395) = (  -0.2500000   0.0000000   0.1582565), wk =   0.0039062
        k(  396) = (  -0.2500000   0.0000000   0.2373847), wk =   0.0039062
        k(  397) = (  -0.2500000   0.0000000  -0.3165130), wk =   0.0039062
        k(  398) = (  -0.2500000   0.0000000  -0.2373847), wk =   0.0039062
        k(  399) = (  -0.2500000   0.0000000  -0.1582565), wk =   0.0039062
        k(  400) = (  -0.2500000   0.0000000  -0.0791282), wk =   0.0039062
        k(  401) = (  -0.2500000   0.1443376   0.0000000), wk =   0.0039062
        k(  402) = (  -0.2500000   0.1443376   0.0791282), wk =   0.0039062
        k(  403) = (  -0.2500000   0.1443376   0.1582565), wk =   0.0039062
        k(  404) = (  -0.2500000   0.1443376   0.2373847), wk =   0.0039062
        k(  405) = (  -0.2500000   0.1443376  -0.3165130), wk =   0.0039062
        k(  406) = (  -0.2500000   0.1443376  -0.2373847), wk =   0.0039062
        k(  407) = (  -0.2500000   0.1443376  -0.1582565), wk =   0.0039062
        k(  408) = (  -0.2500000   0.1443376  -0.0791282), wk =   0.0039062
        k(  409) = (  -0.2500000   0.2886753   0.0000000), wk =   0.0039062
        k(  410) = (  -0.2500000   0.2886753   0.0791282), wk =   0.0039062
        k(  411) = (  -0.2500000   0.2886753   0.1582565), wk =   0.0039062
        k(  412) = (  -0.2500000   0.2886753   0.2373847), wk =   0.0039062
        k(  413) = (  -0.2500000   0.2886753  -0.3165130), wk =   0.0039062
        k(  414) = (  -0.2500000   0.2886753  -0.2373847), wk =   0.0039062
        k(  415) = (  -0.2500000   0.2886753  -0.1582565), wk =   0.0039062
        k(  416) = (  -0.2500000   0.2886753  -0.0791282), wk =   0.0039062
        k(  417) = (  -0.2500000  -0.7216882   0.0000000), wk =   0.0039062
        k(  418) = (  -0.2500000  -0.7216882   0.0791282), wk =   0.0039062
        k(  419) = (  -0.2500000  -0.7216882   0.1582565), wk =   0.0039062
        k(  420) = (  -0.2500000  -0.7216882   0.2373847), wk =   0.0039062
        k(  421) = (  -0.2500000  -0.7216882  -0.3165130), wk =   0.0039062
        k(  422) = (  -0.2500000  -0.7216882  -0.2373847), wk =   0.0039062
        k(  423) = (  -0.2500000  -0.7216882  -0.1582565), wk =   0.0039062
        k(  424) = (  -0.2500000  -0.7216882  -0.0791282), wk =   0.0039062
        k(  425) = (  -0.2500000  -0.5773505   0.0000000), wk =   0.0039062
        k(  426) = (  -0.2500000  -0.5773505   0.0791282), wk =   0.0039062
        k(  427) = (  -0.2500000  -0.5773505   0.1582565), wk =   0.0039062
        k(  428) = (  -0.2500000  -0.5773505   0.2373847), wk =   0.0039062
        k(  429) = (  -0.2500000  -0.5773505  -0.3165130), wk =   0.0039062
        k(  430) = (  -0.2500000  -0.5773505  -0.2373847), wk =   0.0039062
        k(  431) = (  -0.2500000  -0.5773505  -0.1582565), wk =   0.0039062
        k(  432) = (  -0.2500000  -0.5773505  -0.0791282), wk =   0.0039062
        k(  433) = (  -0.2500000  -0.4330129   0.0000000), wk =   0.0039062
        k(  434) = (  -0.2500000  -0.4330129   0.0791282), wk =   0.0039062
        k(  435) = (  -0.2500000  -0.4330129   0.1582565), wk =   0.0039062
        k(  436) = (  -0.2500000  -0.4330129   0.2373847), wk =   0.0039062
        k(  437) = (  -0.2500000  -0.4330129  -0.3165130), wk =   0.0039062
        k(  438) = (  -0.2500000  -0.4330129  -0.2373847), wk =   0.0039062
        k(  439) = (  -0.2500000  -0.4330129  -0.1582565), wk =   0.0039062
        k(  440) = (  -0.2500000  -0.4330129  -0.0791282), wk =   0.0039062
        k(  441) = (  -0.2500000  -0.2886753   0.0000000), wk =   0.0039062
        k(  442) = (  -0.2500000  -0.2886753   0.0791282), wk =   0.0039062
        k(  443) = (  -0.2500000  -0.2886753   0.1582565), wk =   0.0039062
        k(  444) = (  -0.2500000  -0.2886753   0.2373847), wk =   0.0039062
        k(  445) = (  -0.2500000  -0.2886753  -0.3165130), wk =   0.0039062
        k(  446) = (  -0.2500000  -0.2886753  -0.2373847), wk =   0.0039062
        k(  447) = (  -0.2500000  -0.2886753  -0.1582565), wk =   0.0039062
        k(  448) = (  -0.2500000  -0.2886753  -0.0791282), wk =   0.0039062
        k(  449) = (  -0.1250000  -0.0721688   0.0000000), wk =   0.0039062
        k(  450) = (  -0.1250000  -0.0721688   0.0791282), wk =   0.0039062
        k(  451) = (  -0.1250000  -0.0721688   0.1582565), wk =   0.0039062
        k(  452) = (  -0.1250000  -0.0721688   0.2373847), wk =   0.0039062
        k(  453) = (  -0.1250000  -0.0721688  -0.3165130), wk =   0.0039062
        k(  454) = (  -0.1250000  -0.0721688  -0.2373847), wk =   0.0039062
        k(  455) = (  -0.1250000  -0.0721688  -0.1582565), wk =   0.0039062
        k(  456) = (  -0.1250000  -0.0721688  -0.0791282), wk =   0.0039062
        k(  457) = (  -0.1250000   0.0721688   0.0000000), wk =   0.0039062
        k(  458) = (  -0.1250000   0.0721688   0.0791282), wk =   0.0039062
        k(  459) = (  -0.1250000   0.0721688   0.1582565), wk =   0.0039062
        k(  460) = (  -0.1250000   0.0721688   0.2373847), wk =   0.0039062
        k(  461) = (  -0.1250000   0.0721688  -0.3165130), wk =   0.0039062
        k(  462) = (  -0.1250000   0.0721688  -0.2373847), wk =   0.0039062
        k(  463) = (  -0.1250000   0.0721688  -0.1582565), wk =   0.0039062
        k(  464) = (  -0.1250000   0.0721688  -0.0791282), wk =   0.0039062
        k(  465) = (  -0.1250000   0.2165065   0.0000000), wk =   0.0039062
        k(  466) = (  -0.1250000   0.2165065   0.0791282), wk =   0.0039062
        k(  467) = (  -0.1250000   0.2165065   0.1582565), wk =   0.0039062
        k(  468) = (  -0.1250000   0.2165065   0.2373847), wk =   0.0039062
        k(  469) = (  -0.1250000   0.2165065  -0.3165130), wk =   0.0039062
        k(  470) = (  -0.1250000   0.2165065  -0.2373847), wk =   0.0039062
        k(  471) = (  -0.1250000   0.2165065  -0.1582565), wk =   0.0039062
        k(  472) = (  -0.1250000   0.2165065  -0.0791282), wk =   0.0039062
        k(  473) = (  -0.1250000   0.3608441   0.0000000), wk =   0.0039062
        k(  474) = (  -0.1250000   0.3608441   0.0791282), wk =   0.0039062
        k(  475) = (  -0.1250000   0.3608441   0.1582565), wk =   0.0039062
        k(  476) = (  -0.1250000   0.3608441   0.2373847), wk =   0.0039062
        k(  477) = (  -0.1250000   0.3608441  -0.3165130), wk =   0.0039062
        k(  478) = (  -0.1250000   0.3608441  -0.2373847), wk =   0.0039062
        k(  479) = (  -0.1250000   0.3608441  -0.1582565), wk =   0.0039062
        k(  480) = (  -0.1250000   0.3608441  -0.0791282), wk =   0.0039062
        k(  481) = (  -0.1250000  -0.6495194   0.0000000), wk =   0.0039062
        k(  482) = (  -0.1250000  -0.6495194   0.0791282), wk =   0.0039062
        k(  483) = (  -0.1250000  -0.6495194   0.1582565), wk =   0.0039062
        k(  484) = (  -0.1250000  -0.6495194   0.2373847), wk =   0.0039062
        k(  485) = (  -0.1250000  -0.6495194  -0.3165130), wk =   0.0039062
        k(  486) = (  -0.1250000  -0.6495194  -0.2373847), wk =   0.0039062
        k(  487) = (  -0.1250000  -0.6495194  -0.1582565), wk =   0.0039062
        k(  488) = (  -0.1250000  -0.6495194  -0.0791282), wk =   0.0039062
        k(  489) = (  -0.1250000  -0.5051817   0.0000000), wk =   0.0039062
        k(  490) = (  -0.1250000  -0.5051817   0.0791282), wk =   0.0039062
        k(  491) = (  -0.1250000  -0.5051817   0.1582565), wk =   0.0039062
        k(  492) = (  -0.1250000  -0.5051817   0.2373847), wk =   0.0039062
        k(  493) = (  -0.1250000  -0.5051817  -0.3165130), wk =   0.0039062
        k(  494) = (  -0.1250000  -0.5051817  -0.2373847), wk =   0.0039062
        k(  495) = (  -0.1250000  -0.5051817  -0.1582565), wk =   0.0039062
        k(  496) = (  -0.1250000  -0.5051817  -0.0791282), wk =   0.0039062
        k(  497) = (  -0.1250000  -0.3608441   0.0000000), wk =   0.0039062
        k(  498) = (  -0.1250000  -0.3608441   0.0791282), wk =   0.0039062
        k(  499) = (  -0.1250000  -0.3608441   0.1582565), wk =   0.0039062
        k(  500) = (  -0.1250000  -0.3608441   0.2373847), wk =   0.0039062
        k(  501) = (  -0.1250000  -0.3608441  -0.3165130), wk =   0.0039062
        k(  502) = (  -0.1250000  -0.3608441  -0.2373847), wk =   0.0039062
        k(  503) = (  -0.1250000  -0.3608441  -0.1582565), wk =   0.0039062
        k(  504) = (  -0.1250000  -0.3608441  -0.0791282), wk =   0.0039062
        k(  505) = (  -0.1250000  -0.2165065   0.0000000), wk =   0.0039062
        k(  506) = (  -0.1250000  -0.2165065   0.0791282), wk =   0.0039062
        k(  507) = (  -0.1250000  -0.2165065   0.1582565), wk =   0.0039062
        k(  508) = (  -0.1250000  -0.2165065   0.2373847), wk =   0.0039062
        k(  509) = (  -0.1250000  -0.2165065  -0.3165130), wk =   0.0039062
        k(  510) = (  -0.1250000  -0.2165065  -0.2373847), wk =   0.0039062
        k(  511) = (  -0.1250000  -0.2165065  -0.1582565), wk =   0.0039062
        k(  512) = (  -0.1250000  -0.2165065  -0.0791282), wk =   0.0039062

                       cryst. coord.
        k(    1) = (   0.0000000   0.0000000   0.0000000), wk =   0.0039062
        k(    2) = (   0.0000000   0.0000000   0.1250000), wk =   0.0039062
        k(    3) = (   0.0000000   0.0000000   0.2500000), wk =   0.0039062
        k(    4) = (   0.0000000   0.0000000   0.3750000), wk =   0.0039062
        k(    5) = (   0.0000000   0.0000000  -0.5000000), wk =   0.0039062
        k(    6) = (   0.0000000   0.0000000  -0.3750000), wk =   0.0039062
        k(    7) = (   0.0000000   0.0000000  -0.2500000), wk =   0.0039062
        k(    8) = (   0.0000000   0.0000000  -0.1250000), wk =   0.0039062
        k(    9) = (   0.0000000   0.1250000   0.0000000), wk =   0.0039062
        k(   10) = (   0.0000000   0.1250000   0.1250000), wk =   0.0039062
        k(   11) = (   0.0000000   0.1250000   0.2500000), wk =   0.0039062
        k(   12) = (   0.0000000   0.1250000   0.3750000), wk =   0.0039062
        k(   13) = (   0.0000000   0.1250000  -0.5000000), wk =   0.0039062
        k(   14) = (   0.0000000   0.1250000  -0.3750000), wk =   0.0039062
        k(   15) = (   0.0000000   0.1250000  -0.2500000), wk =   0.0039062
        k(   16) = (   0.0000000   0.1250000  -0.1250000), wk =   0.0039062
        k(   17) = (   0.0000000   0.2500000   0.0000000), wk =   0.0039062
        k(   18) = (   0.0000000   0.2500000   0.1250000), wk =   0.0039062
        k(   19) = (   0.0000000   0.2500000   0.2500000), wk =   0.0039062
        k(   20) = (   0.0000000   0.2500000   0.3750000), wk =   0.0039062
        k(   21) = (   0.0000000   0.2500000  -0.5000000), wk =   0.0039062
        k(   22) = (   0.0000000   0.2500000  -0.3750000), wk =   0.0039062
        k(   23) = (   0.0000000   0.2500000  -0.2500000), wk =   0.0039062
        k(   24) = (   0.0000000   0.2500000  -0.1250000), wk =   0.0039062
        k(   25) = (   0.0000000   0.3750000   0.0000000), wk =   0.0039062
        k(   26) = (   0.0000000   0.3750000   0.1250000), wk =   0.0039062
        k(   27) = (   0.0000000   0.3750000   0.2500000), wk =   0.0039062
        k(   28) = (   0.0000000   0.3750000   0.3750000), wk =   0.0039062
        k(   29) = (   0.0000000   0.3750000  -0.5000000), wk =   0.0039062
        k(   30) = (   0.0000000   0.3750000  -0.3750000), wk =   0.0039062
        k(   31) = (   0.0000000   0.3750000  -0.2500000), wk =   0.0039062
        k(   32) = (   0.0000000   0.3750000  -0.1250000), wk =   0.0039062
        k(   33) = (   0.0000000  -0.5000000   0.0000000), wk =   0.0039062
        k(   34) = (   0.0000000  -0.5000000   0.1250000), wk =   0.0039062
        k(   35) = (   0.0000000  -0.5000000   0.2500000), wk =   0.0039062
        k(   36) = (   0.0000000  -0.5000000   0.3750000), wk =   0.0039062
        k(   37) = (   0.0000000  -0.5000000  -0.5000000), wk =   0.0039062
        k(   38) = (   0.0000000  -0.5000000  -0.3750000), wk =   0.0039062
        k(   39) = (   0.0000000  -0.5000000  -0.2500000), wk =   0.0039062
        k(   40) = (   0.0000000  -0.5000000  -0.1250000), wk =   0.0039062
        k(   41) = (   0.0000000  -0.3750000   0.0000000), wk =   0.0039062
        k(   42) = (   0.0000000  -0.3750000   0.1250000), wk =   0.0039062
        k(   43) = (   0.0000000  -0.3750000   0.2500000), wk =   0.0039062
        k(   44) = (   0.0000000  -0.3750000   0.3750000), wk =   0.0039062
        k(   45) = (   0.0000000  -0.3750000  -0.5000000), wk =   0.0039062
        k(   46) = (   0.0000000  -0.3750000  -0.3750000), wk =   0.0039062
        k(   47) = (   0.0000000  -0.3750000  -0.2500000), wk =   0.0039062
        k(   48) = (   0.0000000  -0.3750000  -0.1250000), wk =   0.0039062
        k(   49) = (   0.0000000  -0.2500000   0.0000000), wk =   0.0039062
        k(   50) = (   0.0000000  -0.2500000   0.1250000), wk =   0.0039062
        k(   51) = (   0.0000000  -0.2500000   0.2500000), wk =   0.0039062
        k(   52) = (   0.0000000  -0.2500000   0.3750000), wk =   0.0039062
        k(   53) = (   0.0000000  -0.2500000  -0.5000000), wk =   0.0039062
        k(   54) = (   0.0000000  -0.2500000  -0.3750000), wk =   0.0039062
        k(   55) = (   0.0000000  -0.2500000  -0.2500000), wk =   0.0039062
        k(   56) = (   0.0000000  -0.2500000  -0.1250000), wk =   0.0039062
        k(   57) = (   0.0000000  -0.1250000   0.0000000), wk =   0.0039062
        k(   58) = (   0.0000000  -0.1250000   0.1250000), wk =   0.0039062
        k(   59) = (   0.0000000  -0.1250000   0.2500000), wk =   0.0039062
        k(   60) = (   0.0000000  -0.1250000   0.3750000), wk =   0.0039062
        k(   61) = (   0.0000000  -0.1250000  -0.5000000), wk =   0.0039062
        k(   62) = (   0.0000000  -0.1250000  -0.3750000), wk =   0.0039062
        k(   63) = (   0.0000000  -0.1250000  -0.2500000), wk =   0.0039062
        k(   64) = (   0.0000000  -0.1250000  -0.1250000), wk =   0.0039062
        k(   65) = (   0.1250000   0.0000000   0.0000000), wk =   0.0039062
        k(   66) = (   0.1250000   0.0000000   0.1250000), wk =   0.0039062
        k(   67) = (   0.1250000   0.0000000   0.2500000), wk =   0.0039062
        k(   68) = (   0.1250000   0.0000000   0.3750000), wk =   0.0039062
        k(   69) = (   0.1250000   0.0000000  -0.5000000), wk =   0.0039062
        k(   70) = (   0.1250000   0.0000000  -0.3750000), wk =   0.0039062
        k(   71) = (   0.1250000   0.0000000  -0.2500000), wk =   0.0039062
        k(   72) = (   0.1250000   0.0000000  -0.1250000), wk =   0.0039062
        k(   73) = (   0.1250000   0.1250000   0.0000000), wk =   0.0039062
        k(   74) = (   0.1250000   0.1250000   0.1250000), wk =   0.0039062
        k(   75) = (   0.1250000   0.1250000   0.2500000), wk =   0.0039062
        k(   76) = (   0.1250000   0.1250000   0.3750000), wk =   0.0039062
        k(   77) = (   0.1250000   0.1250000  -0.5000000), wk =   0.0039062
        k(   78) = (   0.1250000   0.1250000  -0.3750000), wk =   0.0039062
        k(   79) = (   0.1250000   0.1250000  -0.2500000), wk =   0.0039062
        k(   80) = (   0.1250000   0.1250000  -0.1250000), wk =   0.0039062
        k(   81) = (   0.1250000   0.2500000   0.0000000), wk =   0.0039062
        k(   82) = (   0.1250000   0.2500000   0.1250000), wk =   0.0039062
        k(   83) = (   0.1250000   0.2500000   0.2500000), wk =   0.0039062
        k(   84) = (   0.1250000   0.2500000   0.3750000), wk =   0.0039062
        k(   85) = (   0.1250000   0.2500000  -0.5000000), wk =   0.0039062
        k(   86) = (   0.1250000   0.2500000  -0.3750000), wk =   0.0039062
        k(   87) = (   0.1250000   0.2500000  -0.2500000), wk =   0.0039062
        k(   88) = (   0.1250000   0.2500000  -0.1250000), wk =   0.0039062
        k(   89) = (   0.1250000   0.3750000   0.0000000), wk =   0.0039062
        k(   90) = (   0.1250000   0.3750000   0.1250000), wk =   0.0039062
        k(   91) = (   0.1250000   0.3750000   0.2500000), wk =   0.0039062
        k(   92) = (   0.1250000   0.3750000   0.3750000), wk =   0.0039062
        k(   93) = (   0.1250000   0.3750000  -0.5000000), wk =   0.0039062
        k(   94) = (   0.1250000   0.3750000  -0.3750000), wk =   0.0039062
        k(   95) = (   0.1250000   0.3750000  -0.2500000), wk =   0.0039062
        k(   96) = (   0.1250000   0.3750000  -0.1250000), wk =   0.0039062
        k(   97) = (   0.1250000  -0.5000000   0.0000000), wk =   0.0039062
        k(   98) = (   0.1250000  -0.5000000   0.1250000), wk =   0.0039062
        k(   99) = (   0.1250000  -0.5000000   0.2500000), wk =   0.0039062
        k(  100) = (   0.1250000  -0.5000000   0.3750000), wk =   0.0039062
        k(  101) = (   0.1250000  -0.5000000  -0.5000000), wk =   0.0039062
        k(  102) = (   0.1250000  -0.5000000  -0.3750000), wk =   0.0039062
        k(  103) = (   0.1250000  -0.5000000  -0.2500000), wk =   0.0039062
        k(  104) = (   0.1250000  -0.5000000  -0.1250000), wk =   0.0039062
        k(  105) = (   0.1250000  -0.3750000   0.0000000), wk =   0.0039062
        k(  106) = (   0.1250000  -0.3750000   0.1250000), wk =   0.0039062
        k(  107) = (   0.1250000  -0.3750000   0.2500000), wk =   0.0039062
        k(  108) = (   0.1250000  -0.3750000   0.3750000), wk =   0.0039062
        k(  109) = (   0.1250000  -0.3750000  -0.5000000), wk =   0.0039062
        k(  110) = (   0.1250000  -0.3750000  -0.3750000), wk =   0.0039062
        k(  111) = (   0.1250000  -0.3750000  -0.2500000), wk =   0.0039062
        k(  112) = (   0.1250000  -0.3750000  -0.1250000), wk =   0.0039062
        k(  113) = (   0.1250000  -0.2500000   0.0000000), wk =   0.0039062
        k(  114) = (   0.1250000  -0.2500000   0.1250000), wk =   0.0039062
        k(  115) = (   0.1250000  -0.2500000   0.2500000), wk =   0.0039062
        k(  116) = (   0.1250000  -0.2500000   0.3750000), wk =   0.0039062
        k(  117) = (   0.1250000  -0.2500000  -0.5000000), wk =   0.0039062
        k(  118) = (   0.1250000  -0.2500000  -0.3750000), wk =   0.0039062
        k(  119) = (   0.1250000  -0.2500000  -0.2500000), wk =   0.0039062
        k(  120) = (   0.1250000  -0.2500000  -0.1250000), wk =   0.0039062
        k(  121) = (   0.1250000  -0.1250000   0.0000000), wk =   0.0039062
        k(  122) = (   0.1250000  -0.1250000   0.1250000), wk =   0.0039062
        k(  123) = (   0.1250000  -0.1250000   0.2500000), wk =   0.0039062
        k(  124) = (   0.1250000  -0.1250000   0.3750000), wk =   0.0039062
        k(  125) = (   0.1250000  -0.1250000  -0.5000000), wk =   0.0039062
        k(  126) = (   0.1250000  -0.1250000  -0.3750000), wk =   0.0039062
        k(  127) = (   0.1250000  -0.1250000  -0.2500000), wk =   0.0039062
        k(  128) = (   0.1250000  -0.1250000  -0.1250000), wk =   0.0039062
        k(  129) = (   0.2500000   0.0000000   0.0000000), wk =   0.0039062
        k(  130) = (   0.2500000   0.0000000   0.1250000), wk =   0.0039062
        k(  131) = (   0.2500000   0.0000000   0.2500000), wk =   0.0039062
        k(  132) = (   0.2500000   0.0000000   0.3750000), wk =   0.0039062
        k(  133) = (   0.2500000   0.0000000  -0.5000000), wk =   0.0039062
        k(  134) = (   0.2500000   0.0000000  -0.3750000), wk =   0.0039062
        k(  135) = (   0.2500000   0.0000000  -0.2500000), wk =   0.0039062
        k(  136) = (   0.2500000   0.0000000  -0.1250000), wk =   0.0039062
        k(  137) = (   0.2500000   0.1250000   0.0000000), wk =   0.0039062
        k(  138) = (   0.2500000   0.1250000   0.1250000), wk =   0.0039062
        k(  139) = (   0.2500000   0.1250000   0.2500000), wk =   0.0039062
        k(  140) = (   0.2500000   0.1250000   0.3750000), wk =   0.0039062
        k(  141) = (   0.2500000   0.1250000  -0.5000000), wk =   0.0039062
        k(  142) = (   0.2500000   0.1250000  -0.3750000), wk =   0.0039062
        k(  143) = (   0.2500000   0.1250000  -0.2500000), wk =   0.0039062
        k(  144) = (   0.2500000   0.1250000  -0.1250000), wk =   0.0039062
        k(  145) = (   0.2500000   0.2500000   0.0000000), wk =   0.0039062
        k(  146) = (   0.2500000   0.2500000   0.1250000), wk =   0.0039062
        k(  147) = (   0.2500000   0.2500000   0.2500000), wk =   0.0039062
        k(  148) = (   0.2500000   0.2500000   0.3750000), wk =   0.0039062
        k(  149) = (   0.2500000   0.2500000  -0.5000000), wk =   0.0039062
        k(  150) = (   0.2500000   0.2500000  -0.3750000), wk =   0.0039062
        k(  151) = (   0.2500000   0.2500000  -0.2500000), wk =   0.0039062
        k(  152) = (   0.2500000   0.2500000  -0.1250000), wk =   0.0039062
        k(  153) = (   0.2500000   0.3750000   0.0000000), wk =   0.0039062
        k(  154) = (   0.2500000   0.3750000   0.1250000), wk =   0.0039062
        k(  155) = (   0.2500000   0.3750000   0.2500000), wk =   0.0039062
        k(  156) = (   0.2500000   0.3750000   0.3750000), wk =   0.0039062
        k(  157) = (   0.2500000   0.3750000  -0.5000000), wk =   0.0039062
        k(  158) = (   0.2500000   0.3750000  -0.3750000), wk =   0.0039062
        k(  159) = (   0.2500000   0.3750000  -0.2500000), wk =   0.0039062
        k(  160) = (   0.2500000   0.3750000  -0.1250000), wk =   0.0039062
        k(  161) = (   0.2500000  -0.5000000   0.0000000), wk =   0.0039062
        k(  162) = (   0.2500000  -0.5000000   0.1250000), wk =   0.0039062
        k(  163) = (   0.2500000  -0.5000000   0.2500000), wk =   0.0039062
        k(  164) = (   0.2500000  -0.5000000   0.3750000), wk =   0.0039062
        k(  165) = (   0.2500000  -0.5000000  -0.5000000), wk =   0.0039062
        k(  166) = (   0.2500000  -0.5000000  -0.3750000), wk =   0.0039062
        k(  167) = (   0.2500000  -0.5000000  -0.2500000), wk =   0.0039062
        k(  168) = (   0.2500000  -0.5000000  -0.1250000), wk =   0.0039062
        k(  169) = (   0.2500000  -0.3750000   0.0000000), wk =   0.0039062
        k(  170) = (   0.2500000  -0.3750000   0.1250000), wk =   0.0039062
        k(  171) = (   0.2500000  -0.3750000   0.2500000), wk =   0.0039062
        k(  172) = (   0.2500000  -0.3750000   0.3750000), wk =   0.0039062
        k(  173) = (   0.2500000  -0.3750000  -0.5000000), wk =   0.0039062
        k(  174) = (   0.2500000  -0.3750000  -0.3750000), wk =   0.0039062
        k(  175) = (   0.2500000  -0.3750000  -0.2500000), wk =   0.0039062
        k(  176) = (   0.2500000  -0.3750000  -0.1250000), wk =   0.0039062
        k(  177) = (   0.2500000  -0.2500000   0.0000000), wk =   0.0039062
        k(  178) = (   0.2500000  -0.2500000   0.1250000), wk =   0.0039062
        k(  179) = (   0.2500000  -0.2500000   0.2500000), wk =   0.0039062
        k(  180) = (   0.2500000  -0.2500000   0.3750000), wk =   0.0039062
        k(  181) = (   0.2500000  -0.2500000  -0.5000000), wk =   0.0039062
        k(  182) = (   0.2500000  -0.2500000  -0.3750000), wk =   0.0039062
        k(  183) = (   0.2500000  -0.2500000  -0.2500000), wk =   0.0039062
        k(  184) = (   0.2500000  -0.2500000  -0.1250000), wk =   0.0039062
        k(  185) = (   0.2500000  -0.1250000   0.0000000), wk =   0.0039062
        k(  186) = (   0.2500000  -0.1250000   0.1250000), wk =   0.0039062
        k(  187) = (   0.2500000  -0.1250000   0.2500000), wk =   0.0039062
        k(  188) = (   0.2500000  -0.1250000   0.3750000), wk =   0.0039062
        k(  189) = (   0.2500000  -0.1250000  -0.5000000), wk =   0.0039062
        k(  190) = (   0.2500000  -0.1250000  -0.3750000), wk =   0.0039062
        k(  191) = (   0.2500000  -0.1250000  -0.2500000), wk =   0.0039062
        k(  192) = (   0.2500000  -0.1250000  -0.1250000), wk =   0.0039062
        k(  193) = (   0.3750000   0.0000000   0.0000000), wk =   0.0039062
        k(  194) = (   0.3750000   0.0000000   0.1250000), wk =   0.0039062
        k(  195) = (   0.3750000   0.0000000   0.2500000), wk =   0.0039062
        k(  196) = (   0.3750000   0.0000000   0.3750000), wk =   0.0039062
        k(  197) = (   0.3750000   0.0000000  -0.5000000), wk =   0.0039062
        k(  198) = (   0.3750000   0.0000000  -0.3750000), wk =   0.0039062
        k(  199) = (   0.3750000   0.0000000  -0.2500000), wk =   0.0039062
        k(  200) = (   0.3750000   0.0000000  -0.1250000), wk =   0.0039062
        k(  201) = (   0.3750000   0.1250000   0.0000000), wk =   0.0039062
        k(  202) = (   0.3750000   0.1250000   0.1250000), wk =   0.0039062
        k(  203) = (   0.3750000   0.1250000   0.2500000), wk =   0.0039062
        k(  204) = (   0.3750000   0.1250000   0.3750000), wk =   0.0039062
        k(  205) = (   0.3750000   0.1250000  -0.5000000), wk =   0.0039062
        k(  206) = (   0.3750000   0.1250000  -0.3750000), wk =   0.0039062
        k(  207) = (   0.3750000   0.1250000  -0.2500000), wk =   0.0039062
        k(  208) = (   0.3750000   0.1250000  -0.1250000), wk =   0.0039062
        k(  209) = (   0.3750000   0.2500000   0.0000000), wk =   0.0039062
        k(  210) = (   0.3750000   0.2500000   0.1250000), wk =   0.0039062
        k(  211) = (   0.3750000   0.2500000   0.2500000), wk =   0.0039062
        k(  212) = (   0.3750000   0.2500000   0.3750000), wk =   0.0039062
        k(  213) = (   0.3750000   0.2500000  -0.5000000), wk =   0.0039062
        k(  214) = (   0.3750000   0.2500000  -0.3750000), wk =   0.0039062
        k(  215) = (   0.3750000   0.2500000  -0.2500000), wk =   0.0039062
        k(  216) = (   0.3750000   0.2500000  -0.1250000), wk =   0.0039062
        k(  217) = (   0.3750000   0.3750000   0.0000000), wk =   0.0039062
        k(  218) = (   0.3750000   0.3750000   0.1250000), wk =   0.0039062
        k(  219) = (   0.3750000   0.3750000   0.2500000), wk =   0.0039062
        k(  220) = (   0.3750000   0.3750000   0.3750000), wk =   0.0039062
        k(  221) = (   0.3750000   0.3750000  -0.5000000), wk =   0.0039062
        k(  222) = (   0.3750000   0.3750000  -0.3750000), wk =   0.0039062
        k(  223) = (   0.3750000   0.3750000  -0.2500000), wk =   0.0039062
        k(  224) = (   0.3750000   0.3750000  -0.1250000), wk =   0.0039062
        k(  225) = (   0.3750000  -0.5000000   0.0000000), wk =   0.0039062
        k(  226) = (   0.3750000  -0.5000000   0.1250000), wk =   0.0039062
        k(  227) = (   0.3750000  -0.5000000   0.2500000), wk =   0.0039062
        k(  228) = (   0.3750000  -0.5000000   0.3750000), wk =   0.0039062
        k(  229) = (   0.3750000  -0.5000000  -0.5000000), wk =   0.0039062
        k(  230) = (   0.3750000  -0.5000000  -0.3750000), wk =   0.0039062
        k(  231) = (   0.3750000  -0.5000000  -0.2500000), wk =   0.0039062
        k(  232) = (   0.3750000  -0.5000000  -0.1250000), wk =   0.0039062
        k(  233) = (   0.3750000  -0.3750000   0.0000000), wk =   0.0039062
        k(  234) = (   0.3750000  -0.3750000   0.1250000), wk =   0.0039062
        k(  235) = (   0.3750000  -0.3750000   0.2500000), wk =   0.0039062
        k(  236) = (   0.3750000  -0.3750000   0.3750000), wk =   0.0039062
        k(  237) = (   0.3750000  -0.3750000  -0.5000000), wk =   0.0039062
        k(  238) = (   0.3750000  -0.3750000  -0.3750000), wk =   0.0039062
        k(  239) = (   0.3750000  -0.3750000  -0.2500000), wk =   0.0039062
        k(  240) = (   0.3750000  -0.3750000  -0.1250000), wk =   0.0039062
        k(  241) = (   0.3750000  -0.2500000   0.0000000), wk =   0.0039062
        k(  242) = (   0.3750000  -0.2500000   0.1250000), wk =   0.0039062
        k(  243) = (   0.3750000  -0.2500000   0.2500000), wk =   0.0039062
        k(  244) = (   0.3750000  -0.2500000   0.3750000), wk =   0.0039062
        k(  245) = (   0.3750000  -0.2500000  -0.5000000), wk =   0.0039062
        k(  246) = (   0.3750000  -0.2500000  -0.3750000), wk =   0.0039062
        k(  247) = (   0.3750000  -0.2500000  -0.2500000), wk =   0.0039062
        k(  248) = (   0.3750000  -0.2500000  -0.1250000), wk =   0.0039062
        k(  249) = (   0.3750000  -0.1250000   0.0000000), wk =   0.0039062
        k(  250) = (   0.3750000  -0.1250000   0.1250000), wk =   0.0039062
        k(  251) = (   0.3750000  -0.1250000   0.2500000), wk =   0.0039062
        k(  252) = (   0.3750000  -0.1250000   0.3750000), wk =   0.0039062
        k(  253) = (   0.3750000  -0.1250000  -0.5000000), wk =   0.0039062
        k(  254) = (   0.3750000  -0.1250000  -0.3750000), wk =   0.0039062
        k(  255) = (   0.3750000  -0.1250000  -0.2500000), wk =   0.0039062
        k(  256) = (   0.3750000  -0.1250000  -0.1250000), wk =   0.0039062
        k(  257) = (  -0.5000000   0.0000000   0.0000000), wk =   0.0039062
        k(  258) = (  -0.5000000   0.0000000   0.1250000), wk =   0.0039062
        k(  259) = (  -0.5000000   0.0000000   0.2500000), wk =   0.0039062
        k(  260) = (  -0.5000000   0.0000000   0.3750000), wk =   0.0039062
        k(  261) = (  -0.5000000   0.0000000  -0.5000000), wk =   0.0039062
        k(  262) = (  -0.5000000   0.0000000  -0.3750000), wk =   0.0039062
        k(  263) = (  -0.5000000   0.0000000  -0.2500000), wk =   0.0039062
        k(  264) = (  -0.5000000   0.0000000  -0.1250000), wk =   0.0039062
        k(  265) = (  -0.5000000   0.1250000   0.0000000), wk =   0.0039062
        k(  266) = (  -0.5000000   0.1250000   0.1250000), wk =   0.0039062
        k(  267) = (  -0.5000000   0.1250000   0.2500000), wk =   0.0039062
        k(  268) = (  -0.5000000   0.1250000   0.3750000), wk =   0.0039062
        k(  269) = (  -0.5000000   0.1250000  -0.5000000), wk =   0.0039062
        k(  270) = (  -0.5000000   0.1250000  -0.3750000), wk =   0.0039062
        k(  271) = (  -0.5000000   0.1250000  -0.2500000), wk =   0.0039062
        k(  272) = (  -0.5000000   0.1250000  -0.1250000), wk =   0.0039062
        k(  273) = (  -0.5000000   0.2500000   0.0000000), wk =   0.0039062
        k(  274) = (  -0.5000000   0.2500000   0.1250000), wk =   0.0039062
        k(  275) = (  -0.5000000   0.2500000   0.2500000), wk =   0.0039062
        k(  276) = (  -0.5000000   0.2500000   0.3750000), wk =   0.0039062
        k(  277) = (  -0.5000000   0.2500000  -0.5000000), wk =   0.0039062
        k(  278) = (  -0.5000000   0.2500000  -0.3750000), wk =   0.0039062
        k(  279) = (  -0.5000000   0.2500000  -0.2500000), wk =   0.0039062
        k(  280) = (  -0.5000000   0.2500000  -0.1250000), wk =   0.0039062
        k(  281) = (  -0.5000000   0.3750000   0.0000000), wk =   0.0039062
        k(  282) = (  -0.5000000   0.3750000   0.1250000), wk =   0.0039062
        k(  283) = (  -0.5000000   0.3750000   0.2500000), wk =   0.0039062
        k(  284) = (  -0.5000000   0.3750000   0.3750000), wk =   0.0039062
        k(  285) = (  -0.5000000   0.3750000  -0.5000000), wk =   0.0039062
        k(  286) = (  -0.5000000   0.3750000  -0.3750000), wk =   0.0039062
        k(  287) = (  -0.5000000   0.3750000  -0.2500000), wk =   0.0039062
        k(  288) = (  -0.5000000   0.3750000  -0.1250000), wk =   0.0039062
        k(  289) = (  -0.5000000  -0.5000000   0.0000000), wk =   0.0039062
        k(  290) = (  -0.5000000  -0.5000000   0.1250000), wk =   0.0039062
        k(  291) = (  -0.5000000  -0.5000000   0.2500000), wk =   0.0039062
        k(  292) = (  -0.5000000  -0.5000000   0.3750000), wk =   0.0039062
        k(  293) = (  -0.5000000  -0.5000000  -0.5000000), wk =   0.0039062
        k(  294) = (  -0.5000000  -0.5000000  -0.3750000), wk =   0.0039062
        k(  295) = (  -0.5000000  -0.5000000  -0.2500000), wk =   0.0039062
        k(  296) = (  -0.5000000  -0.5000000  -0.1250000), wk =   0.0039062
        k(  297) = (  -0.5000000  -0.3750000   0.0000000), wk =   0.0039062
        k(  298) = (  -0.5000000  -0.3750000   0.1250000), wk =   0.0039062
        k(  299) = (  -0.5000000  -0.3750000   0.2500000), wk =   0.0039062
        k(  300) = (  -0.5000000  -0.3750000   0.3750000), wk =   0.0039062
        k(  301) = (  -0.5000000  -0.3750000  -0.5000000), wk =   0.0039062
        k(  302) = (  -0.5000000  -0.3750000  -0.3750000), wk =   0.0039062
        k(  303) = (  -0.5000000  -0.3750000  -0.2500000), wk =   0.0039062
        k(  304) = (  -0.5000000  -0.3750000  -0.1250000), wk =   0.0039062
        k(  305) = (  -0.5000000  -0.2500000   0.0000000), wk =   0.0039062
        k(  306) = (  -0.5000000  -0.2500000   0.1250000), wk =   0.0039062
        k(  307) = (  -0.5000000  -0.2500000   0.2500000), wk =   0.0039062
        k(  308) = (  -0.5000000  -0.2500000   0.3750000), wk =   0.0039062
        k(  309) = (  -0.5000000  -0.2500000  -0.5000000), wk =   0.0039062
        k(  310) = (  -0.5000000  -0.2500000  -0.3750000), wk =   0.0039062
        k(  311) = (  -0.5000000  -0.2500000  -0.2500000), wk =   0.0039062
        k(  312) = (  -0.5000000  -0.2500000  -0.1250000), wk =   0.0039062
        k(  313) = (  -0.5000000  -0.1250000   0.0000000), wk =   0.0039062
        k(  314) = (  -0.5000000  -0.1250000   0.1250000), wk =   0.0039062
        k(  315) = (  -0.5000000  -0.1250000   0.2500000), wk =   0.0039062
        k(  316) = (  -0.5000000  -0.1250000   0.3750000), wk =   0.0039062
        k(  317) = (  -0.5000000  -0.1250000  -0.5000000), wk =   0.0039062
        k(  318) = (  -0.5000000  -0.1250000  -0.3750000), wk =   0.0039062
        k(  319) = (  -0.5000000  -0.1250000  -0.2500000), wk =   0.0039062
        k(  320) = (  -0.5000000  -0.1250000  -0.1250000), wk =   0.0039062
        k(  321) = (  -0.3750000   0.0000000   0.0000000), wk =   0.0039062
        k(  322) = (  -0.3750000   0.0000000   0.1250000), wk =   0.0039062
        k(  323) = (  -0.3750000   0.0000000   0.2500000), wk =   0.0039062
        k(  324) = (  -0.3750000   0.0000000   0.3750000), wk =   0.0039062
        k(  325) = (  -0.3750000   0.0000000  -0.5000000), wk =   0.0039062
        k(  326) = (  -0.3750000   0.0000000  -0.3750000), wk =   0.0039062
        k(  327) = (  -0.3750000   0.0000000  -0.2500000), wk =   0.0039062
        k(  328) = (  -0.3750000   0.0000000  -0.1250000), wk =   0.0039062
        k(  329) = (  -0.3750000   0.1250000   0.0000000), wk =   0.0039062
        k(  330) = (  -0.3750000   0.1250000   0.1250000), wk =   0.0039062
        k(  331) = (  -0.3750000   0.1250000   0.2500000), wk =   0.0039062
        k(  332) = (  -0.3750000   0.1250000   0.3750000), wk =   0.0039062
        k(  333) = (  -0.3750000   0.1250000  -0.5000000), wk =   0.0039062
        k(  334) = (  -0.3750000   0.1250000  -0.3750000), wk =   0.0039062
        k(  335) = (  -0.3750000   0.1250000  -0.2500000), wk =   0.0039062
        k(  336) = (  -0.3750000   0.1250000  -0.1250000), wk =   0.0039062
        k(  337) = (  -0.3750000   0.2500000   0.0000000), wk =   0.0039062
        k(  338) = (  -0.3750000   0.2500000   0.1250000), wk =   0.0039062
        k(  339) = (  -0.3750000   0.2500000   0.2500000), wk =   0.0039062
        k(  340) = (  -0.3750000   0.2500000   0.3750000), wk =   0.0039062
        k(  341) = (  -0.3750000   0.2500000  -0.5000000), wk =   0.0039062
        k(  342) = (  -0.3750000   0.2500000  -0.3750000), wk =   0.0039062
        k(  343) = (  -0.3750000   0.2500000  -0.2500000), wk =   0.0039062
        k(  344) = (  -0.3750000   0.2500000  -0.1250000), wk =   0.0039062
        k(  345) = (  -0.3750000   0.3750000   0.0000000), wk =   0.0039062
        k(  346) = (  -0.3750000   0.3750000   0.1250000), wk =   0.0039062
        k(  347) = (  -0.3750000   0.3750000   0.2500000), wk =   0.0039062
        k(  348) = (  -0.3750000   0.3750000   0.3750000), wk =   0.0039062
        k(  349) = (  -0.3750000   0.3750000  -0.5000000), wk =   0.0039062
        k(  350) = (  -0.3750000   0.3750000  -0.3750000), wk =   0.0039062
        k(  351) = (  -0.3750000   0.3750000  -0.2500000), wk =   0.0039062
        k(  352) = (  -0.3750000   0.3750000  -0.1250000), wk =   0.0039062
        k(  353) = (  -0.3750000  -0.5000000   0.0000000), wk =   0.0039062
        k(  354) = (  -0.3750000  -0.5000000   0.1250000), wk =   0.0039062
        k(  355) = (  -0.3750000  -0.5000000   0.2500000), wk =   0.0039062
        k(  356) = (  -0.3750000  -0.5000000   0.3750000), wk =   0.0039062
        k(  357) = (  -0.3750000  -0.5000000  -0.5000000), wk =   0.0039062
        k(  358) = (  -0.3750000  -0.5000000  -0.3750000), wk =   0.0039062
        k(  359) = (  -0.3750000  -0.5000000  -0.2500000), wk =   0.0039062
        k(  360) = (  -0.3750000  -0.5000000  -0.1250000), wk =   0.0039062
        k(  361) = (  -0.3750000  -0.3750000   0.0000000), wk =   0.0039062
        k(  362) = (  -0.3750000  -0.3750000   0.1250000), wk =   0.0039062
        k(  363) = (  -0.3750000  -0.3750000   0.2500000), wk =   0.0039062
        k(  364) = (  -0.3750000  -0.3750000   0.3750000), wk =   0.0039062
        k(  365) = (  -0.3750000  -0.3750000  -0.5000000), wk =   0.0039062
        k(  366) = (  -0.3750000  -0.3750000  -0.3750000), wk =   0.0039062
        k(  367) = (  -0.3750000  -0.3750000  -0.2500000), wk =   0.0039062
        k(  368) = (  -0.3750000  -0.3750000  -0.1250000), wk =   0.0039062
        k(  369) = (  -0.3750000  -0.2500000   0.0000000), wk =   0.0039062
        k(  370) = (  -0.3750000  -0.2500000   0.1250000), wk =   0.0039062
        k(  371) = (  -0.3750000  -0.2500000   0.2500000), wk =   0.0039062
        k(  372) = (  -0.3750000  -0.2500000   0.3750000), wk =   0.0039062
        k(  373) = (  -0.3750000  -0.2500000  -0.5000000), wk =   0.0039062
        k(  374) = (  -0.3750000  -0.2500000  -0.3750000), wk =   0.0039062
        k(  375) = (  -0.3750000  -0.2500000  -0.2500000), wk =   0.0039062
        k(  376) = (  -0.3750000  -0.2500000  -0.1250000), wk =   0.0039062
        k(  377) = (  -0.3750000  -0.1250000   0.0000000), wk =   0.0039062
        k(  378) = (  -0.3750000  -0.1250000   0.1250000), wk =   0.0039062
        k(  379) = (  -0.3750000  -0.1250000   0.2500000), wk =   0.0039062
        k(  380) = (  -0.3750000  -0.1250000   0.3750000), wk =   0.0039062
        k(  381) = (  -0.3750000  -0.1250000  -0.5000000), wk =   0.0039062
        k(  382) = (  -0.3750000  -0.1250000  -0.3750000), wk =   0.0039062
        k(  383) = (  -0.3750000  -0.1250000  -0.2500000), wk =   0.0039062
        k(  384) = (  -0.3750000  -0.1250000  -0.1250000), wk =   0.0039062
        k(  385) = (  -0.2500000   0.0000000   0.0000000), wk =   0.0039062
        k(  386) = (  -0.2500000   0.0000000   0.1250000), wk =   0.0039062
        k(  387) = (  -0.2500000   0.0000000   0.2500000), wk =   0.0039062
        k(  388) = (  -0.2500000   0.0000000   0.3750000), wk =   0.0039062
        k(  389) = (  -0.2500000   0.0000000  -0.5000000), wk =   0.0039062
        k(  390) = (  -0.2500000   0.0000000  -0.3750000), wk =   0.0039062
        k(  391) = (  -0.2500000   0.0000000  -0.2500000), wk =   0.0039062
        k(  392) = (  -0.2500000   0.0000000  -0.1250000), wk =   0.0039062
        k(  393) = (  -0.2500000   0.1250000   0.0000000), wk =   0.0039062
        k(  394) = (  -0.2500000   0.1250000   0.1250000), wk =   0.0039062
        k(  395) = (  -0.2500000   0.1250000   0.2500000), wk =   0.0039062
        k(  396) = (  -0.2500000   0.1250000   0.3750000), wk =   0.0039062
        k(  397) = (  -0.2500000   0.1250000  -0.5000000), wk =   0.0039062
        k(  398) = (  -0.2500000   0.1250000  -0.3750000), wk =   0.0039062
        k(  399) = (  -0.2500000   0.1250000  -0.2500000), wk =   0.0039062
        k(  400) = (  -0.2500000   0.1250000  -0.1250000), wk =   0.0039062
        k(  401) = (  -0.2500000   0.2500000   0.0000000), wk =   0.0039062
        k(  402) = (  -0.2500000   0.2500000   0.1250000), wk =   0.0039062
        k(  403) = (  -0.2500000   0.2500000   0.2500000), wk =   0.0039062
        k(  404) = (  -0.2500000   0.2500000   0.3750000), wk =   0.0039062
        k(  405) = (  -0.2500000   0.2500000  -0.5000000), wk =   0.0039062
        k(  406) = (  -0.2500000   0.2500000  -0.3750000), wk =   0.0039062
        k(  407) = (  -0.2500000   0.2500000  -0.2500000), wk =   0.0039062
        k(  408) = (  -0.2500000   0.2500000  -0.1250000), wk =   0.0039062
        k(  409) = (  -0.2500000   0.3750000   0.0000000), wk =   0.0039062
        k(  410) = (  -0.2500000   0.3750000   0.1250000), wk =   0.0039062
        k(  411) = (  -0.2500000   0.3750000   0.2500000), wk =   0.0039062
        k(  412) = (  -0.2500000   0.3750000   0.3750000), wk =   0.0039062
        k(  413) = (  -0.2500000   0.3750000  -0.5000000), wk =   0.0039062
        k(  414) = (  -0.2500000   0.3750000  -0.3750000), wk =   0.0039062
        k(  415) = (  -0.2500000   0.3750000  -0.2500000), wk =   0.0039062
        k(  416) = (  -0.2500000   0.3750000  -0.1250000), wk =   0.0039062
        k(  417) = (  -0.2500000  -0.5000000   0.0000000), wk =   0.0039062
        k(  418) = (  -0.2500000  -0.5000000   0.1250000), wk =   0.0039062
        k(  419) = (  -0.2500000  -0.5000000   0.2500000), wk =   0.0039062
        k(  420) = (  -0.2500000  -0.5000000   0.3750000), wk =   0.0039062
        k(  421) = (  -0.2500000  -0.5000000  -0.5000000), wk =   0.0039062
        k(  422) = (  -0.2500000  -0.5000000  -0.3750000), wk =   0.0039062
        k(  423) = (  -0.2500000  -0.5000000  -0.2500000), wk =   0.0039062
        k(  424) = (  -0.2500000  -0.5000000  -0.1250000), wk =   0.0039062
        k(  425) = (  -0.2500000  -0.3750000   0.0000000), wk =   0.0039062
        k(  426) = (  -0.2500000  -0.3750000   0.1250000), wk =   0.0039062
        k(  427) = (  -0.2500000  -0.3750000   0.2500000), wk =   0.0039062
        k(  428) = (  -0.2500000  -0.3750000   0.3750000), wk =   0.0039062
        k(  429) = (  -0.2500000  -0.3750000  -0.5000000), wk =   0.0039062
        k(  430) = (  -0.2500000  -0.3750000  -0.3750000), wk =   0.0039062
        k(  431) = (  -0.2500000  -0.3750000  -0.2500000), wk =   0.0039062
        k(  432) = (  -0.2500000  -0.3750000  -0.1250000), wk =   0.0039062
        k(  433) = (  -0.2500000  -0.2500000   0.0000000), wk =   0.0039062
        k(  434) = (  -0.2500000  -0.2500000   0.1250000), wk =   0.0039062
        k(  435) = (  -0.2500000  -0.2500000   0.2500000), wk =   0.0039062
        k(  436) = (  -0.2500000  -0.2500000   0.3750000), wk =   0.0039062
        k(  437) = (  -0.2500000  -0.2500000  -0.5000000), wk =   0.0039062
        k(  438) = (  -0.2500000  -0.2500000  -0.3750000), wk =   0.0039062
        k(  439) = (  -0.2500000  -0.2500000  -0.2500000), wk =   0.0039062
        k(  440) = (  -0.2500000  -0.2500000  -0.1250000), wk =   0.0039062
        k(  441) = (  -0.2500000  -0.1250000   0.0000000), wk =   0.0039062
        k(  442) = (  -0.2500000  -0.1250000   0.1250000), wk =   0.0039062
        k(  443) = (  -0.2500000  -0.1250000   0.2500000), wk =   0.0039062
        k(  444) = (  -0.2500000  -0.1250000   0.3750000), wk =   0.0039062
        k(  445) = (  -0.2500000  -0.1250000  -0.5000000), wk =   0.0039062
        k(  446) = (  -0.2500000  -0.1250000  -0.3750000), wk =   0.0039062
        k(  447) = (  -0.2500000  -0.1250000  -0.2500000), wk =   0.0039062
        k(  448) = (  -0.2500000  -0.1250000  -0.1250000), wk =   0.0039062
        k(  449) = (  -0.1250000   0.0000000   0.0000000), wk =   0.0039062
        k(  450) = (  -0.1250000   0.0000000   0.1250000), wk =   0.0039062
        k(  451) = (  -0.1250000   0.0000000   0.2500000), wk =   0.0039062
        k(  452) = (  -0.1250000   0.0000000   0.3750000), wk =   0.0039062
        k(  453) = (  -0.1250000   0.0000000  -0.5000000), wk =   0.0039062
        k(  454) = (  -0.1250000   0.0000000  -0.3750000), wk =   0.0039062
        k(  455) = (  -0.1250000   0.0000000  -0.2500000), wk =   0.0039062
        k(  456) = (  -0.1250000   0.0000000  -0.1250000), wk =   0.0039062
        k(  457) = (  -0.1250000   0.1250000   0.0000000), wk =   0.0039062
        k(  458) = (  -0.1250000   0.1250000   0.1250000), wk =   0.0039062
        k(  459) = (  -0.1250000   0.1250000   0.2500000), wk =   0.0039062
        k(  460) = (  -0.1250000   0.1250000   0.3750000), wk =   0.0039062
        k(  461) = (  -0.1250000   0.1250000  -0.5000000), wk =   0.0039062
        k(  462) = (  -0.1250000   0.1250000  -0.3750000), wk =   0.0039062
        k(  463) = (  -0.1250000   0.1250000  -0.2500000), wk =   0.0039062
        k(  464) = (  -0.1250000   0.1250000  -0.1250000), wk =   0.0039062
        k(  465) = (  -0.1250000   0.2500000   0.0000000), wk =   0.0039062
        k(  466) = (  -0.1250000   0.2500000   0.1250000), wk =   0.0039062
        k(  467) = (  -0.1250000   0.2500000   0.2500000), wk =   0.0039062
        k(  468) = (  -0.1250000   0.2500000   0.3750000), wk =   0.0039062
        k(  469) = (  -0.1250000   0.2500000  -0.5000000), wk =   0.0039062
        k(  470) = (  -0.1250000   0.2500000  -0.3750000), wk =   0.0039062
        k(  471) = (  -0.1250000   0.2500000  -0.2500000), wk =   0.0039062
        k(  472) = (  -0.1250000   0.2500000  -0.1250000), wk =   0.0039062
        k(  473) = (  -0.1250000   0.3750000   0.0000000), wk =   0.0039062
        k(  474) = (  -0.1250000   0.3750000   0.1250000), wk =   0.0039062
        k(  475) = (  -0.1250000   0.3750000   0.2500000), wk =   0.0039062
        k(  476) = (  -0.1250000   0.3750000   0.3750000), wk =   0.0039062
        k(  477) = (  -0.1250000   0.3750000  -0.5000000), wk =   0.0039062
        k(  478) = (  -0.1250000   0.3750000  -0.3750000), wk =   0.0039062
        k(  479) = (  -0.1250000   0.3750000  -0.2500000), wk =   0.0039062
        k(  480) = (  -0.1250000   0.3750000  -0.1250000), wk =   0.0039062
        k(  481) = (  -0.1250000  -0.5000000   0.0000000), wk =   0.0039062
        k(  482) = (  -0.1250000  -0.5000000   0.1250000), wk =   0.0039062
        k(  483) = (  -0.1250000  -0.5000000   0.2500000), wk =   0.0039062
[...]
     1.0000   1.0000   0.0000   0.0000

          k =-0.2500-0.2887 0.0000 (   458 PWs)   bands (ev):

    -0.1101   7.6544   8.9985  14.3808

     occupation numbers 
     1.0000   1.0000   0.0000   0.0000

          k =-0.2500-0.2887 0.0791 (   455 PWs)   bands (ev):

     0.0222   6.3055  10.4495  14.5938

     occupation numbers 
     1.0000   1.0000   0.0000   0.0000

          k =-0.2500-0.2887 0.1583 (   455 PWs)   bands (ev):

     0.4201   4.6519  12.2744  15.2736

     occupation numbers 
     1.0000   1.0000   0.0000   0.0000

          k =-0.2500-0.2887 0.2374 (   456 PWs)   bands (ev):

     1.0831   3.2071  13.7314  15.8058

     occupation numbers 
     1.0000   1.0000   0.0000   0.0000

          k =-0.2500-0.2887-0.3165 (   452 PWs)   bands (ev):

     1.9800   2.0461  14.8430  14.9175

     occupation numbers 
     1.0000   1.0000   0.0000   0.0000

          k =-0.2500-0.2887-0.2374 (   456 PWs)   bands (ev):

     1.0837   3.2057  13.7186  15.8121

     occupation numbers 
     1.0000   1.0000   0.0000   0.0000

          k =-0.2500-0.2887-0.1583 (   455 PWs)   bands (ev):

     0.4205   4.6504  12.2658  15.3137

     occupation numbers 
     1.0000   1.0000   0.0000   0.0000

          k =-0.2500-0.2887-0.0791 (   455 PWs)   bands (ev):

     0.0224   6.3037  10.4478  14.6139

     occupation numbers 
     1.0000   1.0000   0.0000   0.0000

          k =-0.1250-0.0722 0.0000 (   447 PWs)   bands (ev):

    -2.8249   4.1578   9.2580  21.0328

     occupation numbers 
     1.0000   1.0000   0.0000   0.0000

          k =-0.1250-0.0722 0.0791 (   455 PWs)   bands (ev):

    -2.6901   3.3753  10.3491  21.1737

     occupation numbers 
     1.0000   1.0000   0.0000   0.0000

          k =-0.1250-0.0722 0.1583 (   461 PWs)   bands (ev):

    -2.2862   1.9304  12.7161  21.5883

     occupation numbers 
     1.0000   1.0000   0.0000   0.0000

          k =-0.1250-0.0722 0.2374 (   465 PWs)   bands (ev):

    -1.6125   0.5246  15.6187  21.9547

     occupation numbers 
     1.0000   1.0000   0.0000   0.0000

          k =-0.1250-0.0722-0.3165 (   468 PWs)   bands (ev):

    -0.7033  -0.6390  18.7642  18.8644

     occupation numbers 
     1.0000   1.0000   0.0000   0.0000

          k =-0.1250-0.0722-0.2374 (   465 PWs)   bands (ev):

    -1.6123   0.5241  15.6217  22.0177

     occupation numbers 
     1.0000   1.0000   0.0000   0.0000

          k =-0.1250-0.0722-0.1583 (   461 PWs)   bands (ev):

    -2.2859   1.9298  12.7179  21.5978

     occupation numbers 
     1.0000   1.0000   0.0000   0.0000

          k =-0.1250-0.0722-0.0791 (   455 PWs)   bands (ev):

    -2.6901   3.3747  10.3516  21.1744

     occupation numbers 
     1.0000   1.0000   0.0000   0.0000

          k =-0.1250 0.0722 0.0000 (   447 PWs)   bands (ev):

    -2.8245   4.1548   9.2746  20.9565

     occupation numbers 
     1.0000   1.0000   0.0000   0.0000

          k =-0.1250 0.0722 0.0791 (   455 PWs)   bands (ev):

    -2.6895   3.3751  10.3608  21.0808

     occupation numbers 
     1.0000   1.0000   0.0000   0.0000

          k =-0.1250 0.0722 0.1583 (   461 PWs)   bands (ev):

    -2.2847   1.9326  12.7176  21.4342

     occupation numbers 
     1.0000   1.0000   0.0000   0.0000

          k =-0.1250 0.0722 0.2374 (   465 PWs)   bands (ev):

    -1.6105   0.5274  15.6002  21.4057

     occupation numbers 
     1.0000   1.0000   0.0000   0.0000

          k =-0.1250 0.0722-0.3165 (   468 PWs)   bands (ev):

    -0.7013  -0.6363  18.6845  18.7864

     occupation numbers 
     1.0000   1.0000   0.0000   0.0000

          k =-0.1250 0.0722-0.2374 (   465 PWs)   bands (ev):

    -1.6105   0.5272  15.6057  21.3516

     occupation numbers 
     1.0000   1.0000   0.0000   0.0000

          k =-0.1250 0.0722-0.1583 (   461 PWs)   bands (ev):

    -2.2848   1.9323  12.7204  21.4120

     occupation numbers 
     1.0000   1.0000   0.0000   0.0000

          k =-0.1250 0.0722-0.0791 (   455 PWs)   bands (ev):

    -2.6895   3.3748  10.3627  21.0726

     occupation numbers 
     1.0000   1.0000   0.0000   0.0000

          k =-0.1250 0.2165 0.0000 (   453 PWs)   bands (ev):

    -1.9181   5.3081   9.5663  17.7935

     occupation numbers 
     1.0000   1.0000   0.0000   0.0000

          k =-0.1250 0.2165 0.0791 (   458 PWs)   bands (ev):

    -1.7818   4.4320  10.7186  17.8914

     occupation numbers 
     1.0000   1.0000   0.0000   0.0000

          k =-0.1250 0.2165 0.1583 (   457 PWs)   bands (ev):

    -1.3733   2.9134  13.0498  18.1671

     occupation numbers 
     1.0000   1.0000   0.0000   0.0000

          k =-0.1250 0.2165 0.2374 (   458 PWs)   bands (ev):

    -0.6917   1.4749  15.7105  18.4757

     occupation numbers 
     1.0000   1.0000   0.0000   0.0000

          k =-0.1250 0.2165-0.3165 (   458 PWs)   bands (ev):

     0.2282   0.2943  17.9404  18.0253

     occupation numbers 
     1.0000   1.0000   0.0000   0.0000

          k =-0.1250 0.2165-0.2374 (   458 PWs)   bands (ev):

    -0.6918   1.4752  15.7049  18.4828

     occupation numbers 
     1.0000   1.0000   0.0000   0.0000

          k =-0.1250 0.2165-0.1583 (   457 PWs)   bands (ev):

    -1.3734   2.9139  13.0465  18.1634

     occupation numbers 
     1.0000   1.0000   0.0000   0.0000

          k =-0.1250 0.2165-0.0791 (   458 PWs)   bands (ev):

    -1.7818   4.4326  10.7175  17.8889

     occupation numbers 
     1.0000   1.0000   0.0000   0.0000

          k =-0.1250 0.3608 0.0000 (   458 PWs)   bands (ev):

    -0.1153   7.5548   9.7059  13.2971

     occupation numbers 
     1.0000   1.0000   0.0000   0.0000

          k =-0.1250 0.3608 0.0791 (   455 PWs)   bands (ev):

     0.0239   6.4111  10.9010  13.5247

     occupation numbers 
     1.0000   1.0000   0.0000   0.0000

          k =-0.1250 0.3608 0.1583 (   455 PWs)   bands (ev):

     0.4390   4.7845  12.3783  14.3197

     occupation numbers 
     1.0000   1.0000   0.0000   0.0000

          k =-0.1250 0.3608 0.2374 (   456 PWs)   bands (ev):

     1.1298   3.3182  13.3096  14.7153

     occupation numbers 
     1.0000   1.0000   0.0000   0.0000

          k =-0.1250 0.3608-0.3165 (   452 PWs)   bands (ev):

     2.0585   2.1269  14.0357  14.1142

     occupation numbers 
     1.0000   1.0000   0.0000   0.0000

          k =-0.1250 0.3608-0.2374 (   456 PWs)   bands (ev):

     1.1294   3.3197  13.2800  14.7355

     occupation numbers 
     1.0000   1.0000   0.0000   0.0000

          k =-0.1250 0.3608-0.1583 (   455 PWs)   bands (ev):

     0.4389   4.7872  12.3390  14.3646

     occupation numbers 
     1.0000   1.0000   0.0000   0.0000

          k =-0.1250 0.3608-0.0791 (   455 PWs)   bands (ev):

     0.0239   6.4157  10.8780  13.5473

     occupation numbers 
     1.0000   1.0000   0.0000   0.0000

          k =-0.1250-0.6495 0.0000 (   454 PWs)   bands (ev):

     2.3933   7.0791  10.4835  12.8727

     occupation numbers 
     1.0000   1.0000   0.0000   0.0000

          k =-0.1250-0.6495 0.0791 (   455 PWs)   bands (ev):

     2.5369   6.9693   9.9434  12.9404

     occupation numbers 
     1.0000   1.0000   0.0000   0.0000

          k =-0.1250-0.6495 0.1583 (   456 PWs)   bands (ev):

     2.9635   6.4955   9.3428  11.8442

     occupation numbers 
     1.0000   1.0000   0.0000   0.0000

          k =-0.1250-0.6495 0.2374 (   456 PWs)   bands (ev):

     3.6527   5.5871   9.3574  10.7112

     occupation numbers 
     1.0000   1.0000   0.0000   0.0000

          k =-0.1250-0.6495-0.3165 (   460 PWs)   bands (ev):

     4.5292   4.5927   9.8314   9.8873

     occupation numbers 
     1.0000   1.0000   0.0000   0.0000

          k =-0.1250-0.6495-0.2374 (   456 PWs)   bands (ev):

     3.6516   5.5924   9.3422  10.7183

     occupation numbers 
     1.0000   1.0000   0.0000   0.0000

          k =-0.1250-0.6495-0.1583 (   456 PWs)   bands (ev):

     2.9631   6.5041   9.3230  11.8389

     occupation numbers 
     1.0000   1.0000   0.0000   0.0000

          k =-0.1250-0.6495-0.0791 (   455 PWs)   bands (ev):

     2.5372   6.9761   9.9263  12.9407

     occupation numbers 
     1.0000   1.0000   0.0000   0.0000

          k =-0.1250-0.5052 0.0000 (   454 PWs)   bands (ev):

     2.3901   7.0836  10.5074  12.6663

     occupation numbers 
     1.0000   1.0000   0.0000   0.0000

          k =-0.1250-0.5052 0.0791 (   455 PWs)   bands (ev):

     2.5321   6.9843   9.8999  12.9241

     occupation numbers 
     1.0000   1.0000   0.0000   0.0000

          k =-0.1250-0.5052 0.1583 (   456 PWs)   bands (ev):

     2.9551   6.5083   9.2797  11.9276

     occupation numbers 
     1.0000   1.0000   0.0000   0.0000

          k =-0.1250-0.5052 0.2374 (   456 PWs)   bands (ev):

     3.6384   5.5814   9.3296  10.7817

     occupation numbers 
     1.0000   1.0000   0.0000   0.0000

          k =-0.1250-0.5052-0.3165 (   460 PWs)   bands (ev):

     4.5140   4.5765   9.8572   9.9131

     occupation numbers 
     1.0000   1.0000   0.0000   0.0000

          k =-0.1250-0.5052-0.2374 (   456 PWs)   bands (ev):

     3.6396   5.5759   9.3449  10.7711

     occupation numbers 
     1.0000   1.0000   0.0000   0.0000

          k =-0.1250-0.5052-0.1583 (   456 PWs)   bands (ev):

     2.9556   6.4996   9.2968  11.9202

     occupation numbers 
     1.0000   1.0000   0.0000   0.0000

          k =-0.1250-0.5052-0.0791 (   455 PWs)   bands (ev):

     2.5323   6.9781   9.9125  12.9235

     occupation numbers 
     1.0000   1.0000   0.0000   0.0000

          k =-0.1250-0.3608 0.0000 (   458 PWs)   bands (ev):

    -0.1175   7.5728   9.6622  13.2302

     occupation numbers 
     1.0000   1.0000   0.0000   0.0000

          k =-0.1250-0.3608 0.0791 (   455 PWs)   bands (ev):

     0.0199   6.4121  10.8554  13.5046

     occupation numbers 
     1.0000   1.0000   0.0000   0.0000

          k =-0.1250-0.3608 0.1583 (   455 PWs)   bands (ev):

     0.4329   4.7735  12.3223  14.4025

     occupation numbers 
     1.0000   1.0000   0.0000   0.0000

          k =-0.1250-0.3608 0.2374 (   456 PWs)   bands (ev):

     1.1192   3.3043  13.2840  14.8451

     occupation numbers 
     1.0000   1.0000   0.0000   0.0000

          k =-0.1250-0.3608-0.3165 (   452 PWs)   bands (ev):

     2.0449   2.1130  14.0894  14.1672

     occupation numbers 
     1.0000   1.0000   0.0000   0.0000

          k =-0.1250-0.3608-0.2374 (   456 PWs)   bands (ev):

     1.1198   3.3021  13.3158  14.8153

     occupation numbers 
     1.0000   1.0000   0.0000   0.0000

          k =-0.1250-0.3608-0.1583 (   455 PWs)   bands (ev):

     0.4331   4.7697  12.3601  14.3683

     occupation numbers 
     1.0000   1.0000   0.0000   0.0000

          k =-0.1250-0.3608-0.0791 (   455 PWs)   bands (ev):

     0.0201   6.4059  10.8818  13.4823

     occupation numbers 
     1.0000   1.0000   0.0000   0.0000

          k =-0.1250-0.2165 0.0000 (   453 PWs)   bands (ev):

    -1.9203   5.3177   9.5172  17.8961

     occupation numbers 
     1.0000   1.0000   0.0000   0.0000

          k =-0.1250-0.2165 0.0791 (   458 PWs)   bands (ev):

    -1.7846   4.4324  10.6831  18.0027

     occupation numbers 
     1.0000   1.0000   0.0000   0.0000

          k =-0.1250-0.2165 0.1583 (   457 PWs)   bands (ev):

    -1.3771   2.9066  13.0331  18.3717

     occupation numbers 
     1.0000   1.0000   0.0000   0.0000

          k =-0.1250-0.2165 0.2374 (   458 PWs)   bands (ev):

    -0.6973   1.4669  15.7341  18.7704

     occupation numbers 
     1.0000   1.0000   0.0000   0.0000

          k =-0.1250-0.2165-0.3165 (   458 PWs)   bands (ev):

     0.2202   0.2862  18.1334  18.2139

     occupation numbers 
     1.0000   1.0000   0.0000   0.0000

          k =-0.1250-0.2165-0.2374 (   458 PWs)   bands (ev):

    -0.6970   1.4657  15.7513  18.7330

     occupation numbers 
     1.0000   1.0000   0.0000   0.0000

          k =-0.1250-0.2165-0.1583 (   457 PWs)   bands (ev):

    -1.3768   2.9051  13.0416  18.3507

     occupation numbers 
     1.0000   1.0000   0.0000   0.0000

          k =-0.1250-0.2165-0.0791 (   458 PWs)   bands (ev):

    -1.7844   4.4307  10.6876  18.0398

     occupation numbers 
     1.0000   1.0000   0.0000   0.0000

     the Fermi energy is     8.5918 ev

!    total energy              =      -5.36238877 Ry
     estimated scf accuracy    <       0.00219272 Ry
     smearing contrib. (-TS)   =      -0.00002701 Ry
     internal energy E=F+TS    =      -5.36236175 Ry

     The total energy is F=E-TS. E is the sum of the following terms:
     one-electron contribution =       4.06237079 Ry
     hartree contribution      =       0.00501764 Ry
     xc contribution           =      -3.29517368 Ry
     ewald contribution        =      -6.13457650 Ry

     convergence has been achieved in   1 iterations

     Forces acting on atoms (cartesian axes, Ry/au):

     atom    1 type  1   force =     0.01656764    0.02419360   -0.00086498
     atom    2 type  1   force =    -0.01656764   -0.02419360    0.00086498
     The non-local contrib.  to forces
     atom    1 type  1   force =     0.02080078    0.03554711   -0.00492644
     atom    2 type  1   force =    -0.02081794   -0.03555535    0.00487485
     The ionic contribution  to forces
     atom    1 type  1   force =     0.01235276    0.01463138   -0.01186739
     atom    2 type  1   force =    -0.01235276   -0.01463138    0.01186739
     The local contribution  to forces
     atom    1 type  1   force =    -0.01589695   -0.02465065    0.01802430
     atom    2 type  1   force =     0.01589910    0.02465802   -0.01801792
     The core correction contribution to forces
     atom    1 type  1   force =    -0.00086401   -0.00160091    0.00050461
     atom    2 type  1   force =     0.00086425    0.00160131   -0.00050272
     The Hubbard contrib.    to forces
     atom    1 type  1   force =     0.00000000    0.00000000    0.00000000
     atom    2 type  1   force =     0.00000000    0.00000000    0.00000000
     The SCF correction term to forces
     atom    1 type  1   force =     0.00016767    0.00026645   -0.00262170
     atom    2 type  1   force =    -0.00016767   -0.00026642    0.00262175

     Total force =     0.041487     Total SCF correction =     0.003734


     Computing stress (Cartesian axis) and pressure

          total   stress  (Ry/bohr**3)                   (kbar)     P=       16.20
   0.00025242   0.00007357  -0.00000882           37.13       10.82       -1.30
   0.00007357  -0.00023015  -0.00002154           10.82      -33.86       -3.17
  -0.00000882  -0.00002154   0.00030817           -1.30       -3.17       45.33

     kinetic stress (kbar)   2822.15      6.79     -0.63
                                6.79   2761.28     -2.88
                               -0.63     -2.88   2808.36

     local   stress (kbar)    171.09    -27.43      0.54
                              -27.43    438.22      0.94
                                0.54      0.94    125.77

     nonloc. stress (kbar)    911.96      5.09     -0.13
                                5.09    862.89     -0.05
                               -0.13     -0.05    924.51

     hartree stress (kbar)      3.09      0.34      0.01
                                0.34     -0.68      0.02
                                0.01      0.02      4.52

     exc-cor stress (kbar)    120.47      0.41     -0.01
                                0.41    116.39     -0.03
                               -0.01     -0.03    121.02

     corecor stress (kbar)  -1227.64     -1.21      0.02
                               -1.21  -1215.72      0.09
                                0.02      0.09  -1229.09

     ewald   stress (kbar)  -2763.99     26.84     -1.09
                               26.84  -2996.23     -1.27
                               -1.09     -1.27  -2709.75

     hubbard stress (kbar)      0.00      0.00      0.00
                                0.00      0.00      0.00
                                0.00      0.00      0.00

     DFT-D   stress (kbar)      0.00      0.00      0.00
                                0.00      0.00      0.00
                                0.00      0.00      0.00

     XDM     stress (kbar)      0.00      0.00      0.00
                                0.00      0.00      0.00
                                0.00      0.00      0.00

     dft-nl  stress (kbar)      0.00      0.00      0.00
                                0.00      0.00      0.00
                                0.00      0.00      0.00

     TS-vdW  stress (kbar)      0.00      0.00      0.00
                                0.00      0.00      0.00
                                0.00      0.00      0.00



     Writing output data file temp/Be.save/

     init_run     :      3.60s CPU      3.64s WALL (       1 calls)
     electrons    :     18.17s CPU     18.34s WALL (       1 calls)
     forces       :      0.18s CPU      0.19s WALL (       1 calls)
     stress       :      0.67s CPU      0.68s WALL (       1 calls)

     Called by init_run:
     wfcinit      :      3.45s CPU      3.49s WALL (       1 calls)
     wfcinit:atom :      0.04s CPU      0.04s WALL (     512 calls)
     wfcinit:wfcr :      3.27s CPU      3.31s WALL (     512 calls)
     potinit      :      0.01s CPU      0.01s WALL (       1 calls)
     hinit0       :      0.11s CPU      0.11s WALL (       1 calls)

     Called by electrons:
     c_bands      :     16.45s CPU     16.60s WALL (       2 calls)
     sum_band     :      1.71s CPU      1.72s WALL (       2 calls)
     v_of_rho     :      0.01s CPU      0.01s WALL (       2 calls)
     v_h          :      0.00s CPU      0.00s WALL (       2 calls)
     v_xc         :      0.02s CPU      0.02s WALL (       4 calls)
     newd         :      0.00s CPU      0.01s WALL (       2 calls)
     mix_rho      :      0.00s CPU      0.00s WALL (       2 calls)

     Called by c_bands:
     init_us_2    :      0.26s CPU      0.27s WALL (    3584 calls)
     cegterg      :     16.24s CPU     16.39s WALL (    1024 calls)

     Called by sum_band:
     sum_band:wei :      0.00s CPU      0.00s WALL (       2 calls)
     sum_band:loo :      1.70s CPU      1.71s WALL (       2 calls)
     sum_band:buf :      0.00s CPU      0.00s WALL (    1024 calls)
     sum_band:ini :      0.08s CPU      0.08s WALL (    1024 calls)
     sum_band:cal :      0.06s CPU      0.06s WALL (    1024 calls)
     sum_band:bec :      0.00s CPU      0.00s WALL (    1024 calls)
     addusdens    :      0.00s CPU      0.00s WALL (       2 calls)
     addusd:skk   :      0.00s CPU      0.00s WALL (       2 calls)
     addusd:dgemm :      0.00s CPU      0.00s WALL (       2 calls)
     addusd:qvan2 :      0.00s CPU      0.00s WALL (       2 calls)

     Called by *egterg:
     cdiaghg      :      0.20s CPU      0.21s WALL (    6067 calls)
     cegterg:over :      0.20s CPU      0.21s WALL (    5555 calls)
     cegterg:upda :      0.09s CPU      0.10s WALL (    5555 calls)
     cegterg:last :      0.21s CPU      0.21s WALL (    4366 calls)
     h_psi        :     18.37s CPU     18.54s WALL (    7091 calls)
     s_psi        :      0.21s CPU      0.21s WALL (    7091 calls)
     g_psi        :      0.03s CPU      0.03s WALL (    5555 calls)

     Called by h_psi:
     h_psi:calbec :      0.36s CPU      0.36s WALL (    7091 calls)
     vloc_psi     :     17.76s CPU     17.93s WALL (    7091 calls)
     add_vuspsi   :      0.21s CPU      0.21s WALL (    7091 calls)

     General routines
     calbec       :      0.52s CPU      0.53s WALL (   10675 calls)
     fft          :      0.03s CPU      0.03s WALL (      48 calls)
     ffts         :      0.00s CPU      0.00s WALL (       2 calls)
     fftw         :     18.77s CPU     18.97s WALL (   50738 calls)

     Parallel routines

     PWSCF        :     22.83s CPU     23.06s WALL


   This run was terminated on:  16:23:37   7Sep2021            

=------------------------------------------------------------------------------=
   JOB DONE.
=------------------------------------------------------------------------------=
