
     Program PWSCF v.6.6 starts on  7Sep2021 at 16:24: 3 

     This program is part of the open-source Quantum ESPRESSO suite
     for quantum simulation of materials; please cite
         "P. Giannozzi et al., J. Phys.:Condens. Matter 21 395502 (2009);
         "P. Giannozzi et al., J. Phys.:Condens. Matter 29 465901 (2017);
          URL http://www.quantum-espresso.org", 
     in publications or presentations arising from this work. More details at
     http://www.quantum-espresso.org/quote

     Parallel version (MPI), running on     1 processors

     MPI processes distributed on     1 nodes
     Fft bands division:     nmany     =       1
     Reading input from Be_snapshot3.pw.scf.in
Warning: card &CELL ignored
Warning: card / ignored

     Current dimensions of program PWSCF are:
     Max number of different atomic species (ntypx) = 10
     Max number of k-points (npk) =  40000
     Max angular momentum in pseudopotentials (lmaxx) =  3

     Subspace diagonalization in iterative solution of the eigenvalue problem:
     a serial algorithm will be used


     G-vector sticks info
     --------------------
     sticks:   dense  smooth     PW     G-vecs:    dense   smooth      PW
     Sum         199     199     85                 3669     3669     881



     bravais-lattice index     =            0
     lattice parameter (alat)  =       4.2705  a.u.
     unit-cell volume          =     106.5443 (a.u.)^3
     number of atoms/cell      =            2
     number of atomic types    =            1
     number of electrons       =         4.00
     number of Kohn-Sham states=            4
     kinetic-energy cutoff     =      40.0000  Ry
     charge density cutoff     =     160.0000  Ry
     convergence threshold     =      2.0E-02
     mixing beta               =       0.1000
     number of iterations used =            8  plain     mixing
     Exchange-correlation= PBE
                           (   1   4   3   4   0   0   0)

     celldm(1)=   4.270452  celldm(2)=   0.000000  celldm(3)=   0.000000
     celldm(4)=   0.000000  celldm(5)=   0.000000  celldm(6)=   0.000000

     crystal axes: (cart. coord. in units of alat)
               a(1) = (   1.000000   0.000000   0.000000 )  
               a(2) = (  -0.500000   0.866025   0.000000 )  
               a(3) = (   0.000000   0.000000   1.579714 )  

     reciprocal axes: (cart. coord. in units 2 pi/alat)
               b(1) = (  1.000000  0.577351 -0.000000 )  
               b(2) = (  0.000000  1.154701  0.000000 )  
               b(3) = (  0.000000 -0.000000  0.633026 )  


     PseudoPot. # 1 for Be read from file:
     /home/fiedlerl/tools/pslibrary/pbe/PSEUDOPOTENTIALS/Be.pbe-n-rrkjus_psl.1.0.0.UPF
     MD5 check sum: 734a25375992c446e1da9bf329ae4716
     Pseudo is Ultrasoft + core correction, Zval =  2.0
     Generated using "atomic" code by A. Dal Corso v.6.6
     Using radial grid of 1041 points,  4 beta functions with: 
                l(1) =   0
                l(2) =   0
                l(3) =   1
                l(4) =   1
     Q(r) pseudized with 0 coefficients 


     atomic species   valence    mass     pseudopotential
        Be             2.00     9.01218     Be( 1.00)

     No symmetry found


                                    s                        frac. trans.

      isym =  1     identity                                     

 cryst.   s( 1) = (     1          0          0      )
                  (     0          1          0      )
                  (     0          0          1      )

 cart.    s( 1) = (  1.0000000  0.0000000  0.0000000 )
                  (  0.0000000  1.0000000  0.0000000 )
                  (  0.0000000  0.0000000  1.0000000 )


   Cartesian axes

     site n.     atom                  positions (alat units)
         1           Be  tau(   1) = (   0.7092889   0.1307310   1.1846612  )
         2           Be  tau(   2) = (  -0.2092890   0.7352943   0.3950526  )

   Crystallographic axes

     site n.     atom                  positions (cryst. coord.)
         1           Be  tau(   1) = (  0.7847665  0.1509552  0.7499213  )
         2           Be  tau(   2) = (  0.2152336  0.8490451  0.2500785  )

     number of k points=   512  Fermi-Dirac smearing, width (Ry)=  0.0019
                       cart. coord. in units 2pi/alat
        k(    1) = (   0.0000000   0.0000000   0.0000000), wk =   0.0039062
        k(    2) = (   0.0000000   0.0000000   0.0791282), wk =   0.0039062
        k(    3) = (   0.0000000   0.0000000   0.1582565), wk =   0.0039062
        k(    4) = (   0.0000000   0.0000000   0.2373847), wk =   0.0039062
        k(    5) = (   0.0000000   0.0000000  -0.3165130), wk =   0.0039062
        k(    6) = (   0.0000000   0.0000000  -0.2373847), wk =   0.0039062
        k(    7) = (   0.0000000   0.0000000  -0.1582565), wk =   0.0039062
        k(    8) = (   0.0000000   0.0000000  -0.0791282), wk =   0.0039062
        k(    9) = (   0.0000000   0.1443376   0.0000000), wk =   0.0039062
        k(   10) = (   0.0000000   0.1443376   0.0791282), wk =   0.0039062
        k(   11) = (   0.0000000   0.1443376   0.1582565), wk =   0.0039062
        k(   12) = (   0.0000000   0.1443376   0.2373847), wk =   0.0039062
        k(   13) = (   0.0000000   0.1443376  -0.3165130), wk =   0.0039062
        k(   14) = (   0.0000000   0.1443376  -0.2373847), wk =   0.0039062
        k(   15) = (   0.0000000   0.1443376  -0.1582565), wk =   0.0039062
        k(   16) = (   0.0000000   0.1443376  -0.0791282), wk =   0.0039062
        k(   17) = (   0.0000000   0.2886753   0.0000000), wk =   0.0039062
        k(   18) = (   0.0000000   0.2886753   0.0791282), wk =   0.0039062
        k(   19) = (   0.0000000   0.2886753   0.1582565), wk =   0.0039062
        k(   20) = (   0.0000000   0.2886753   0.2373847), wk =   0.0039062
        k(   21) = (   0.0000000   0.2886753  -0.3165130), wk =   0.0039062
        k(   22) = (   0.0000000   0.2886753  -0.2373847), wk =   0.0039062
        k(   23) = (   0.0000000   0.2886753  -0.1582565), wk =   0.0039062
        k(   24) = (   0.0000000   0.2886753  -0.0791282), wk =   0.0039062
        k(   25) = (   0.0000000   0.4330129   0.0000000), wk =   0.0039062
        k(   26) = (   0.0000000   0.4330129   0.0791282), wk =   0.0039062
        k(   27) = (   0.0000000   0.4330129   0.1582565), wk =   0.0039062
        k(   28) = (   0.0000000   0.4330129   0.2373847), wk =   0.0039062
        k(   29) = (   0.0000000   0.4330129  -0.3165130), wk =   0.0039062
        k(   30) = (   0.0000000   0.4330129  -0.2373847), wk =   0.0039062
        k(   31) = (   0.0000000   0.4330129  -0.1582565), wk =   0.0039062
        k(   32) = (   0.0000000   0.4330129  -0.0791282), wk =   0.0039062
        k(   33) = (   0.0000000  -0.5773505   0.0000000), wk =   0.0039062
        k(   34) = (   0.0000000  -0.5773505   0.0791282), wk =   0.0039062
        k(   35) = (   0.0000000  -0.5773505   0.1582565), wk =   0.0039062
        k(   36) = (   0.0000000  -0.5773505   0.2373847), wk =   0.0039062
        k(   37) = (   0.0000000  -0.5773505  -0.3165130), wk =   0.0039062
        k(   38) = (   0.0000000  -0.5773505  -0.2373847), wk =   0.0039062
        k(   39) = (   0.0000000  -0.5773505  -0.1582565), wk =   0.0039062
        k(   40) = (   0.0000000  -0.5773505  -0.0791282), wk =   0.0039062
        k(   41) = (   0.0000000  -0.4330129   0.0000000), wk =   0.0039062
        k(   42) = (   0.0000000  -0.4330129   0.0791282), wk =   0.0039062
        k(   43) = (   0.0000000  -0.4330129   0.1582565), wk =   0.0039062
        k(   44) = (   0.0000000  -0.4330129   0.2373847), wk =   0.0039062
        k(   45) = (   0.0000000  -0.4330129  -0.3165130), wk =   0.0039062
        k(   46) = (   0.0000000  -0.4330129  -0.2373847), wk =   0.0039062
        k(   47) = (   0.0000000  -0.4330129  -0.1582565), wk =   0.0039062
        k(   48) = (   0.0000000  -0.4330129  -0.0791282), wk =   0.0039062
        k(   49) = (   0.0000000  -0.2886753   0.0000000), wk =   0.0039062
        k(   50) = (   0.0000000  -0.2886753   0.0791282), wk =   0.0039062
        k(   51) = (   0.0000000  -0.2886753   0.1582565), wk =   0.0039062
        k(   52) = (   0.0000000  -0.2886753   0.2373847), wk =   0.0039062
        k(   53) = (   0.0000000  -0.2886753  -0.3165130), wk =   0.0039062
        k(   54) = (   0.0000000  -0.2886753  -0.2373847), wk =   0.0039062
        k(   55) = (   0.0000000  -0.2886753  -0.1582565), wk =   0.0039062
        k(   56) = (   0.0000000  -0.2886753  -0.0791282), wk =   0.0039062
        k(   57) = (   0.0000000  -0.1443376   0.0000000), wk =   0.0039062
        k(   58) = (   0.0000000  -0.1443376   0.0791282), wk =   0.0039062
        k(   59) = (   0.0000000  -0.1443376   0.1582565), wk =   0.0039062
        k(   60) = (   0.0000000  -0.1443376   0.2373847), wk =   0.0039062
        k(   61) = (   0.0000000  -0.1443376  -0.3165130), wk =   0.0039062
        k(   62) = (   0.0000000  -0.1443376  -0.2373847), wk =   0.0039062
        k(   63) = (   0.0000000  -0.1443376  -0.1582565), wk =   0.0039062
        k(   64) = (   0.0000000  -0.1443376  -0.0791282), wk =   0.0039062
        k(   65) = (   0.1250000   0.0721688   0.0000000), wk =   0.0039062
        k(   66) = (   0.1250000   0.0721688   0.0791282), wk =   0.0039062
        k(   67) = (   0.1250000   0.0721688   0.1582565), wk =   0.0039062
        k(   68) = (   0.1250000   0.0721688   0.2373847), wk =   0.0039062
        k(   69) = (   0.1250000   0.0721688  -0.3165130), wk =   0.0039062
        k(   70) = (   0.1250000   0.0721688  -0.2373847), wk =   0.0039062
        k(   71) = (   0.1250000   0.0721688  -0.1582565), wk =   0.0039062
        k(   72) = (   0.1250000   0.0721688  -0.0791282), wk =   0.0039062
        k(   73) = (   0.1250000   0.2165065   0.0000000), wk =   0.0039062
        k(   74) = (   0.1250000   0.2165065   0.0791282), wk =   0.0039062
        k(   75) = (   0.1250000   0.2165065   0.1582565), wk =   0.0039062
        k(   76) = (   0.1250000   0.2165065   0.2373847), wk =   0.0039062
        k(   77) = (   0.1250000   0.2165065  -0.3165130), wk =   0.0039062
        k(   78) = (   0.1250000   0.2165065  -0.2373847), wk =   0.0039062
        k(   79) = (   0.1250000   0.2165065  -0.1582565), wk =   0.0039062
        k(   80) = (   0.1250000   0.2165065  -0.0791282), wk =   0.0039062
        k(   81) = (   0.1250000   0.3608441   0.0000000), wk =   0.0039062
        k(   82) = (   0.1250000   0.3608441   0.0791282), wk =   0.0039062
        k(   83) = (   0.1250000   0.3608441   0.1582565), wk =   0.0039062
        k(   84) = (   0.1250000   0.3608441   0.2373847), wk =   0.0039062
        k(   85) = (   0.1250000   0.3608441  -0.3165130), wk =   0.0039062
        k(   86) = (   0.1250000   0.3608441  -0.2373847), wk =   0.0039062
        k(   87) = (   0.1250000   0.3608441  -0.1582565), wk =   0.0039062
        k(   88) = (   0.1250000   0.3608441  -0.0791282), wk =   0.0039062
        k(   89) = (   0.1250000   0.5051817   0.0000000), wk =   0.0039062
        k(   90) = (   0.1250000   0.5051817   0.0791282), wk =   0.0039062
        k(   91) = (   0.1250000   0.5051817   0.1582565), wk =   0.0039062
        k(   92) = (   0.1250000   0.5051817   0.2373847), wk =   0.0039062
        k(   93) = (   0.1250000   0.5051817  -0.3165130), wk =   0.0039062
        k(   94) = (   0.1250000   0.5051817  -0.2373847), wk =   0.0039062
        k(   95) = (   0.1250000   0.5051817  -0.1582565), wk =   0.0039062
        k(   96) = (   0.1250000   0.5051817  -0.0791282), wk =   0.0039062
        k(   97) = (   0.1250000  -0.5051817   0.0000000), wk =   0.0039062
        k(   98) = (   0.1250000  -0.5051817   0.0791282), wk =   0.0039062
        k(   99) = (   0.1250000  -0.5051817   0.1582565), wk =   0.0039062
        k(  100) = (   0.1250000  -0.5051817   0.2373847), wk =   0.0039062
        k(  101) = (   0.1250000  -0.5051817  -0.3165130), wk =   0.0039062
        k(  102) = (   0.1250000  -0.5051817  -0.2373847), wk =   0.0039062
        k(  103) = (   0.1250000  -0.5051817  -0.1582565), wk =   0.0039062
        k(  104) = (   0.1250000  -0.5051817  -0.0791282), wk =   0.0039062
        k(  105) = (   0.1250000  -0.3608441   0.0000000), wk =   0.0039062
        k(  106) = (   0.1250000  -0.3608441   0.0791282), wk =   0.0039062
        k(  107) = (   0.1250000  -0.3608441   0.1582565), wk =   0.0039062
        k(  108) = (   0.1250000  -0.3608441   0.2373847), wk =   0.0039062
        k(  109) = (   0.1250000  -0.3608441  -0.3165130), wk =   0.0039062
        k(  110) = (   0.1250000  -0.3608441  -0.2373847), wk =   0.0039062
        k(  111) = (   0.1250000  -0.3608441  -0.1582565), wk =   0.0039062
        k(  112) = (   0.1250000  -0.3608441  -0.0791282), wk =   0.0039062
        k(  113) = (   0.1250000  -0.2165065   0.0000000), wk =   0.0039062
        k(  114) = (   0.1250000  -0.2165065   0.0791282), wk =   0.0039062
        k(  115) = (   0.1250000  -0.2165065   0.1582565), wk =   0.0039062
        k(  116) = (   0.1250000  -0.2165065   0.2373847), wk =   0.0039062
        k(  117) = (   0.1250000  -0.2165065  -0.3165130), wk =   0.0039062
        k(  118) = (   0.1250000  -0.2165065  -0.2373847), wk =   0.0039062
        k(  119) = (   0.1250000  -0.2165065  -0.1582565), wk =   0.0039062
        k(  120) = (   0.1250000  -0.2165065  -0.0791282), wk =   0.0039062
        k(  121) = (   0.1250000  -0.0721688   0.0000000), wk =   0.0039062
        k(  122) = (   0.1250000  -0.0721688   0.0791282), wk =   0.0039062
        k(  123) = (   0.1250000  -0.0721688   0.1582565), wk =   0.0039062
        k(  124) = (   0.1250000  -0.0721688   0.2373847), wk =   0.0039062
        k(  125) = (   0.1250000  -0.0721688  -0.3165130), wk =   0.0039062
        k(  126) = (   0.1250000  -0.0721688  -0.2373847), wk =   0.0039062
        k(  127) = (   0.1250000  -0.0721688  -0.1582565), wk =   0.0039062
        k(  128) = (   0.1250000  -0.0721688  -0.0791282), wk =   0.0039062
        k(  129) = (   0.2500000   0.1443376   0.0000000), wk =   0.0039062
        k(  130) = (   0.2500000   0.1443376   0.0791282), wk =   0.0039062
        k(  131) = (   0.2500000   0.1443376   0.1582565), wk =   0.0039062
        k(  132) = (   0.2500000   0.1443376   0.2373847), wk =   0.0039062
        k(  133) = (   0.2500000   0.1443376  -0.3165130), wk =   0.0039062
        k(  134) = (   0.2500000   0.1443376  -0.2373847), wk =   0.0039062
        k(  135) = (   0.2500000   0.1443376  -0.1582565), wk =   0.0039062
        k(  136) = (   0.2500000   0.1443376  -0.0791282), wk =   0.0039062
        k(  137) = (   0.2500000   0.2886753   0.0000000), wk =   0.0039062
        k(  138) = (   0.2500000   0.2886753   0.0791282), wk =   0.0039062
        k(  139) = (   0.2500000   0.2886753   0.1582565), wk =   0.0039062
        k(  140) = (   0.2500000   0.2886753   0.2373847), wk =   0.0039062
        k(  141) = (   0.2500000   0.2886753  -0.3165130), wk =   0.0039062
        k(  142) = (   0.2500000   0.2886753  -0.2373847), wk =   0.0039062
        k(  143) = (   0.2500000   0.2886753  -0.1582565), wk =   0.0039062
        k(  144) = (   0.2500000   0.2886753  -0.0791282), wk =   0.0039062
        k(  145) = (   0.2500000   0.4330129   0.0000000), wk =   0.0039062
        k(  146) = (   0.2500000   0.4330129   0.0791282), wk =   0.0039062
        k(  147) = (   0.2500000   0.4330129   0.1582565), wk =   0.0039062
        k(  148) = (   0.2500000   0.4330129   0.2373847), wk =   0.0039062
        k(  149) = (   0.2500000   0.4330129  -0.3165130), wk =   0.0039062
        k(  150) = (   0.2500000   0.4330129  -0.2373847), wk =   0.0039062
        k(  151) = (   0.2500000   0.4330129  -0.1582565), wk =   0.0039062
        k(  152) = (   0.2500000   0.4330129  -0.0791282), wk =   0.0039062
        k(  153) = (   0.2500000   0.5773505   0.0000000), wk =   0.0039062
        k(  154) = (   0.2500000   0.5773505   0.0791282), wk =   0.0039062
        k(  155) = (   0.2500000   0.5773505   0.1582565), wk =   0.0039062
        k(  156) = (   0.2500000   0.5773505   0.2373847), wk =   0.0039062
        k(  157) = (   0.2500000   0.5773505  -0.3165130), wk =   0.0039062
        k(  158) = (   0.2500000   0.5773505  -0.2373847), wk =   0.0039062
        k(  159) = (   0.2500000   0.5773505  -0.1582565), wk =   0.0039062
        k(  160) = (   0.2500000   0.5773505  -0.0791282), wk =   0.0039062
        k(  161) = (   0.2500000  -0.4330129   0.0000000), wk =   0.0039062
        k(  162) = (   0.2500000  -0.4330129   0.0791282), wk =   0.0039062
        k(  163) = (   0.2500000  -0.4330129   0.1582565), wk =   0.0039062
        k(  164) = (   0.2500000  -0.4330129   0.2373847), wk =   0.0039062
        k(  165) = (   0.2500000  -0.4330129  -0.3165130), wk =   0.0039062
        k(  166) = (   0.2500000  -0.4330129  -0.2373847), wk =   0.0039062
        k(  167) = (   0.2500000  -0.4330129  -0.1582565), wk =   0.0039062
        k(  168) = (   0.2500000  -0.4330129  -0.0791282), wk =   0.0039062
        k(  169) = (   0.2500000  -0.2886753   0.0000000), wk =   0.0039062
        k(  170) = (   0.2500000  -0.2886753   0.0791282), wk =   0.0039062
        k(  171) = (   0.2500000  -0.2886753   0.1582565), wk =   0.0039062
        k(  172) = (   0.2500000  -0.2886753   0.2373847), wk =   0.0039062
        k(  173) = (   0.2500000  -0.2886753  -0.3165130), wk =   0.0039062
        k(  174) = (   0.2500000  -0.2886753  -0.2373847), wk =   0.0039062
        k(  175) = (   0.2500000  -0.2886753  -0.1582565), wk =   0.0039062
        k(  176) = (   0.2500000  -0.2886753  -0.0791282), wk =   0.0039062
        k(  177) = (   0.2500000  -0.1443376   0.0000000), wk =   0.0039062
        k(  178) = (   0.2500000  -0.1443376   0.0791282), wk =   0.0039062
        k(  179) = (   0.2500000  -0.1443376   0.1582565), wk =   0.0039062
        k(  180) = (   0.2500000  -0.1443376   0.2373847), wk =   0.0039062
        k(  181) = (   0.2500000  -0.1443376  -0.3165130), wk =   0.0039062
        k(  182) = (   0.2500000  -0.1443376  -0.2373847), wk =   0.0039062
        k(  183) = (   0.2500000  -0.1443376  -0.1582565), wk =   0.0039062
        k(  184) = (   0.2500000  -0.1443376  -0.0791282), wk =   0.0039062
        k(  185) = (   0.2500000   0.0000000   0.0000000), wk =   0.0039062
        k(  186) = (   0.2500000   0.0000000   0.0791282), wk =   0.0039062
        k(  187) = (   0.2500000   0.0000000   0.1582565), wk =   0.0039062
        k(  188) = (   0.2500000   0.0000000   0.2373847), wk =   0.0039062
        k(  189) = (   0.2500000   0.0000000  -0.3165130), wk =   0.0039062
        k(  190) = (   0.2500000   0.0000000  -0.2373847), wk =   0.0039062
        k(  191) = (   0.2500000   0.0000000  -0.1582565), wk =   0.0039062
        k(  192) = (   0.2500000   0.0000000  -0.0791282), wk =   0.0039062
        k(  193) = (   0.3750000   0.2165065   0.0000000), wk =   0.0039062
        k(  194) = (   0.3750000   0.2165065   0.0791282), wk =   0.0039062
        k(  195) = (   0.3750000   0.2165065   0.1582565), wk =   0.0039062
        k(  196) = (   0.3750000   0.2165065   0.2373847), wk =   0.0039062
        k(  197) = (   0.3750000   0.2165065  -0.3165130), wk =   0.0039062
        k(  198) = (   0.3750000   0.2165065  -0.2373847), wk =   0.0039062
        k(  199) = (   0.3750000   0.2165065  -0.1582565), wk =   0.0039062
        k(  200) = (   0.3750000   0.2165065  -0.0791282), wk =   0.0039062
        k(  201) = (   0.3750000   0.3608441   0.0000000), wk =   0.0039062
        k(  202) = (   0.3750000   0.3608441   0.0791282), wk =   0.0039062
        k(  203) = (   0.3750000   0.3608441   0.1582565), wk =   0.0039062
        k(  204) = (   0.3750000   0.3608441   0.2373847), wk =   0.0039062
        k(  205) = (   0.3750000   0.3608441  -0.3165130), wk =   0.0039062
        k(  206) = (   0.3750000   0.3608441  -0.2373847), wk =   0.0039062
        k(  207) = (   0.3750000   0.3608441  -0.1582565), wk =   0.0039062
        k(  208) = (   0.3750000   0.3608441  -0.0791282), wk =   0.0039062
        k(  209) = (   0.3750000   0.5051817   0.0000000), wk =   0.0039062
        k(  210) = (   0.3750000   0.5051817   0.0791282), wk =   0.0039062
        k(  211) = (   0.3750000   0.5051817   0.1582565), wk =   0.0039062
        k(  212) = (   0.3750000   0.5051817   0.2373847), wk =   0.0039062
        k(  213) = (   0.3750000   0.5051817  -0.3165130), wk =   0.0039062
        k(  214) = (   0.3750000   0.5051817  -0.2373847), wk =   0.0039062
        k(  215) = (   0.3750000   0.5051817  -0.1582565), wk =   0.0039062
        k(  216) = (   0.3750000   0.5051817  -0.0791282), wk =   0.0039062
        k(  217) = (   0.3750000   0.6495194   0.0000000), wk =   0.0039062
        k(  218) = (   0.3750000   0.6495194   0.0791282), wk =   0.0039062
        k(  219) = (   0.3750000   0.6495194   0.1582565), wk =   0.0039062
        k(  220) = (   0.3750000   0.6495194   0.2373847), wk =   0.0039062
        k(  221) = (   0.3750000   0.6495194  -0.3165130), wk =   0.0039062
        k(  222) = (   0.3750000   0.6495194  -0.2373847), wk =   0.0039062
        k(  223) = (   0.3750000   0.6495194  -0.1582565), wk =   0.0039062
        k(  224) = (   0.3750000   0.6495194  -0.0791282), wk =   0.0039062
        k(  225) = (   0.3750000  -0.3608441   0.0000000), wk =   0.0039062
        k(  226) = (   0.3750000  -0.3608441   0.0791282), wk =   0.0039062
        k(  227) = (   0.3750000  -0.3608441   0.1582565), wk =   0.0039062
        k(  228) = (   0.3750000  -0.3608441   0.2373847), wk =   0.0039062
        k(  229) = (   0.3750000  -0.3608441  -0.3165130), wk =   0.0039062
        k(  230) = (   0.3750000  -0.3608441  -0.2373847), wk =   0.0039062
        k(  231) = (   0.3750000  -0.3608441  -0.1582565), wk =   0.0039062
        k(  232) = (   0.3750000  -0.3608441  -0.0791282), wk =   0.0039062
        k(  233) = (   0.3750000  -0.2165065   0.0000000), wk =   0.0039062
        k(  234) = (   0.3750000  -0.2165065   0.0791282), wk =   0.0039062
        k(  235) = (   0.3750000  -0.2165065   0.1582565), wk =   0.0039062
        k(  236) = (   0.3750000  -0.2165065   0.2373847), wk =   0.0039062
        k(  237) = (   0.3750000  -0.2165065  -0.3165130), wk =   0.0039062
        k(  238) = (   0.3750000  -0.2165065  -0.2373847), wk =   0.0039062
        k(  239) = (   0.3750000  -0.2165065  -0.1582565), wk =   0.0039062
        k(  240) = (   0.3750000  -0.2165065  -0.0791282), wk =   0.0039062
        k(  241) = (   0.3750000  -0.0721688   0.0000000), wk =   0.0039062
        k(  242) = (   0.3750000  -0.0721688   0.0791282), wk =   0.0039062
        k(  243) = (   0.3750000  -0.0721688   0.1582565), wk =   0.0039062
        k(  244) = (   0.3750000  -0.0721688   0.2373847), wk =   0.0039062
        k(  245) = (   0.3750000  -0.0721688  -0.3165130), wk =   0.0039062
        k(  246) = (   0.3750000  -0.0721688  -0.2373847), wk =   0.0039062
        k(  247) = (   0.3750000  -0.0721688  -0.1582565), wk =   0.0039062
        k(  248) = (   0.3750000  -0.0721688  -0.0791282), wk =   0.0039062
        k(  249) = (   0.3750000   0.0721688   0.0000000), wk =   0.0039062
        k(  250) = (   0.3750000   0.0721688   0.0791282), wk =   0.0039062
        k(  251) = (   0.3750000   0.0721688   0.1582565), wk =   0.0039062
        k(  252) = (   0.3750000   0.0721688   0.2373847), wk =   0.0039062
        k(  253) = (   0.3750000   0.0721688  -0.3165130), wk =   0.0039062
        k(  254) = (   0.3750000   0.0721688  -0.2373847), wk =   0.0039062
        k(  255) = (   0.3750000   0.0721688  -0.1582565), wk =   0.0039062
        k(  256) = (   0.3750000   0.0721688  -0.0791282), wk =   0.0039062
        k(  257) = (  -0.5000000  -0.2886753   0.0000000), wk =   0.0039062
        k(  258) = (  -0.5000000  -0.2886753   0.0791282), wk =   0.0039062
        k(  259) = (  -0.5000000  -0.2886753   0.1582565), wk =   0.0039062
        k(  260) = (  -0.5000000  -0.2886753   0.2373847), wk =   0.0039062
        k(  261) = (  -0.5000000  -0.2886753  -0.3165130), wk =   0.0039062
        k(  262) = (  -0.5000000  -0.2886753  -0.2373847), wk =   0.0039062
        k(  263) = (  -0.5000000  -0.2886753  -0.1582565), wk =   0.0039062
        k(  264) = (  -0.5000000  -0.2886753  -0.0791282), wk =   0.0039062
        k(  265) = (  -0.5000000  -0.1443376   0.0000000), wk =   0.0039062
        k(  266) = (  -0.5000000  -0.1443376   0.0791282), wk =   0.0039062
        k(  267) = (  -0.5000000  -0.1443376   0.1582565), wk =   0.0039062
        k(  268) = (  -0.5000000  -0.1443376   0.2373847), wk =   0.0039062
        k(  269) = (  -0.5000000  -0.1443376  -0.3165130), wk =   0.0039062
        k(  270) = (  -0.5000000  -0.1443376  -0.2373847), wk =   0.0039062
        k(  271) = (  -0.5000000  -0.1443376  -0.1582565), wk =   0.0039062
        k(  272) = (  -0.5000000  -0.1443376  -0.0791282), wk =   0.0039062
        k(  273) = (  -0.5000000   0.0000000   0.0000000), wk =   0.0039062
        k(  274) = (  -0.5000000   0.0000000   0.0791282), wk =   0.0039062
        k(  275) = (  -0.5000000   0.0000000   0.1582565), wk =   0.0039062
        k(  276) = (  -0.5000000   0.0000000   0.2373847), wk =   0.0039062
        k(  277) = (  -0.5000000   0.0000000  -0.3165130), wk =   0.0039062
        k(  278) = (  -0.5000000   0.0000000  -0.2373847), wk =   0.0039062
        k(  279) = (  -0.5000000   0.0000000  -0.1582565), wk =   0.0039062
        k(  280) = (  -0.5000000   0.0000000  -0.0791282), wk =   0.0039062
        k(  281) = (  -0.5000000   0.1443376   0.0000000), wk =   0.0039062
        k(  282) = (  -0.5000000   0.1443376   0.0791282), wk =   0.0039062
        k(  283) = (  -0.5000000   0.1443376   0.1582565), wk =   0.0039062
        k(  284) = (  -0.5000000   0.1443376   0.2373847), wk =   0.0039062
        k(  285) = (  -0.5000000   0.1443376  -0.3165130), wk =   0.0039062
        k(  286) = (  -0.5000000   0.1443376  -0.2373847), wk =   0.0039062
        k(  287) = (  -0.5000000   0.1443376  -0.1582565), wk =   0.0039062
        k(  288) = (  -0.5000000   0.1443376  -0.0791282), wk =   0.0039062
        k(  289) = (  -0.5000000  -0.8660258   0.0000000), wk =   0.0039062
        k(  290) = (  -0.5000000  -0.8660258   0.0791282), wk =   0.0039062
        k(  291) = (  -0.5000000  -0.8660258   0.1582565), wk =   0.0039062
        k(  292) = (  -0.5000000  -0.8660258   0.2373847), wk =   0.0039062
        k(  293) = (  -0.5000000  -0.8660258  -0.3165130), wk =   0.0039062
        k(  294) = (  -0.5000000  -0.8660258  -0.2373847), wk =   0.0039062
        k(  295) = (  -0.5000000  -0.8660258  -0.1582565), wk =   0.0039062
        k(  296) = (  -0.5000000  -0.8660258  -0.0791282), wk =   0.0039062
        k(  297) = (  -0.5000000  -0.7216882   0.0000000), wk =   0.0039062
        k(  298) = (  -0.5000000  -0.7216882   0.0791282), wk =   0.0039062
        k(  299) = (  -0.5000000  -0.7216882   0.1582565), wk =   0.0039062
        k(  300) = (  -0.5000000  -0.7216882   0.2373847), wk =   0.0039062
        k(  301) = (  -0.5000000  -0.7216882  -0.3165130), wk =   0.0039062
        k(  302) = (  -0.5000000  -0.7216882  -0.2373847), wk =   0.0039062
        k(  303) = (  -0.5000000  -0.7216882  -0.1582565), wk =   0.0039062
        k(  304) = (  -0.5000000  -0.7216882  -0.0791282), wk =   0.0039062
        k(  305) = (  -0.5000000  -0.5773505   0.0000000), wk =   0.0039062
        k(  306) = (  -0.5000000  -0.5773505   0.0791282), wk =   0.0039062
        k(  307) = (  -0.5000000  -0.5773505   0.1582565), wk =   0.0039062
        k(  308) = (  -0.5000000  -0.5773505   0.2373847), wk =   0.0039062
        k(  309) = (  -0.5000000  -0.5773505  -0.3165130), wk =   0.0039062
        k(  310) = (  -0.5000000  -0.5773505  -0.2373847), wk =   0.0039062
        k(  311) = (  -0.5000000  -0.5773505  -0.1582565), wk =   0.0039062
        k(  312) = (  -0.5000000  -0.5773505  -0.0791282), wk =   0.0039062
        k(  313) = (  -0.5000000  -0.4330129   0.0000000), wk =   0.0039062
        k(  314) = (  -0.5000000  -0.4330129   0.0791282), wk =   0.0039062
        k(  315) = (  -0.5000000  -0.4330129   0.1582565), wk =   0.0039062
        k(  316) = (  -0.5000000  -0.4330129   0.2373847), wk =   0.0039062
        k(  317) = (  -0.5000000  -0.4330129  -0.3165130), wk =   0.0039062
        k(  318) = (  -0.5000000  -0.4330129  -0.2373847), wk =   0.0039062
        k(  319) = (  -0.5000000  -0.4330129  -0.1582565), wk =   0.0039062
        k(  320) = (  -0.5000000  -0.4330129  -0.0791282), wk =   0.0039062
        k(  321) = (  -0.3750000  -0.2165065   0.0000000), wk =   0.0039062
        k(  322) = (  -0.3750000  -0.2165065   0.0791282), wk =   0.0039062
        k(  323) = (  -0.3750000  -0.2165065   0.1582565), wk =   0.0039062
        k(  324) = (  -0.3750000  -0.2165065   0.2373847), wk =   0.0039062
        k(  325) = (  -0.3750000  -0.2165065  -0.3165130), wk =   0.0039062
        k(  326) = (  -0.3750000  -0.2165065  -0.2373847), wk =   0.0039062
        k(  327) = (  -0.3750000  -0.2165065  -0.1582565), wk =   0.0039062
        k(  328) = (  -0.3750000  -0.2165065  -0.0791282), wk =   0.0039062
        k(  329) = (  -0.3750000  -0.0721688   0.0000000), wk =   0.0039062
        k(  330) = (  -0.3750000  -0.0721688   0.0791282), wk =   0.0039062
        k(  331) = (  -0.3750000  -0.0721688   0.1582565), wk =   0.0039062
        k(  332) = (  -0.3750000  -0.0721688   0.2373847), wk =   0.0039062
        k(  333) = (  -0.3750000  -0.0721688  -0.3165130), wk =   0.0039062
        k(  334) = (  -0.3750000  -0.0721688  -0.2373847), wk =   0.0039062
        k(  335) = (  -0.3750000  -0.0721688  -0.1582565), wk =   0.0039062
        k(  336) = (  -0.3750000  -0.0721688  -0.0791282), wk =   0.0039062
        k(  337) = (  -0.3750000   0.0721688   0.0000000), wk =   0.0039062
        k(  338) = (  -0.3750000   0.0721688   0.0791282), wk =   0.0039062
        k(  339) = (  -0.3750000   0.0721688   0.1582565), wk =   0.0039062
        k(  340) = (  -0.3750000   0.0721688   0.2373847), wk =   0.0039062
        k(  341) = (  -0.3750000   0.0721688  -0.3165130), wk =   0.0039062
        k(  342) = (  -0.3750000   0.0721688  -0.2373847), wk =   0.0039062
        k(  343) = (  -0.3750000   0.0721688  -0.1582565), wk =   0.0039062
        k(  344) = (  -0.3750000   0.0721688  -0.0791282), wk =   0.0039062
        k(  345) = (  -0.3750000   0.2165065   0.0000000), wk =   0.0039062
        k(  346) = (  -0.3750000   0.2165065   0.0791282), wk =   0.0039062
        k(  347) = (  -0.3750000   0.2165065   0.1582565), wk =   0.0039062
        k(  348) = (  -0.3750000   0.2165065   0.2373847), wk =   0.0039062
        k(  349) = (  -0.3750000   0.2165065  -0.3165130), wk =   0.0039062
        k(  350) = (  -0.3750000   0.2165065  -0.2373847), wk =   0.0039062
        k(  351) = (  -0.3750000   0.2165065  -0.1582565), wk =   0.0039062
        k(  352) = (  -0.3750000   0.2165065  -0.0791282), wk =   0.0039062
        k(  353) = (  -0.3750000  -0.7938570   0.0000000), wk =   0.0039062
        k(  354) = (  -0.3750000  -0.7938570   0.0791282), wk =   0.0039062
        k(  355) = (  -0.3750000  -0.7938570   0.1582565), wk =   0.0039062
        k(  356) = (  -0.3750000  -0.7938570   0.2373847), wk =   0.0039062
        k(  357) = (  -0.3750000  -0.7938570  -0.3165130), wk =   0.0039062
        k(  358) = (  -0.3750000  -0.7938570  -0.2373847), wk =   0.0039062
        k(  359) = (  -0.3750000  -0.7938570  -0.1582565), wk =   0.0039062
        k(  360) = (  -0.3750000  -0.7938570  -0.0791282), wk =   0.0039062
        k(  361) = (  -0.3750000  -0.6495194   0.0000000), wk =   0.0039062
        k(  362) = (  -0.3750000  -0.6495194   0.0791282), wk =   0.0039062
        k(  363) = (  -0.3750000  -0.6495194   0.1582565), wk =   0.0039062
        k(  364) = (  -0.3750000  -0.6495194   0.2373847), wk =   0.0039062
        k(  365) = (  -0.3750000  -0.6495194  -0.3165130), wk =   0.0039062
        k(  366) = (  -0.3750000  -0.6495194  -0.2373847), wk =   0.0039062
        k(  367) = (  -0.3750000  -0.6495194  -0.1582565), wk =   0.0039062
        k(  368) = (  -0.3750000  -0.6495194  -0.0791282), wk =   0.0039062
        k(  369) = (  -0.3750000  -0.5051817   0.0000000), wk =   0.0039062
        k(  370) = (  -0.3750000  -0.5051817   0.0791282), wk =   0.0039062
        k(  371) = (  -0.3750000  -0.5051817   0.1582565), wk =   0.0039062
        k(  372) = (  -0.3750000  -0.5051817   0.2373847), wk =   0.0039062
        k(  373) = (  -0.3750000  -0.5051817  -0.3165130), wk =   0.0039062
        k(  374) = (  -0.3750000  -0.5051817  -0.2373847), wk =   0.0039062
        k(  375) = (  -0.3750000  -0.5051817  -0.1582565), wk =   0.0039062
        k(  376) = (  -0.3750000  -0.5051817  -0.0791282), wk =   0.0039062
        k(  377) = (  -0.3750000  -0.3608441   0.0000000), wk =   0.0039062
        k(  378) = (  -0.3750000  -0.3608441   0.0791282), wk =   0.0039062
        k(  379) = (  -0.3750000  -0.3608441   0.1582565), wk =   0.0039062
        k(  380) = (  -0.3750000  -0.3608441   0.2373847), wk =   0.0039062
        k(  381) = (  -0.3750000  -0.3608441  -0.3165130), wk =   0.0039062
        k(  382) = (  -0.3750000  -0.3608441  -0.2373847), wk =   0.0039062
        k(  383) = (  -0.3750000  -0.3608441  -0.1582565), wk =   0.0039062
        k(  384) = (  -0.3750000  -0.3608441  -0.0791282), wk =   0.0039062
        k(  385) = (  -0.2500000  -0.1443376   0.0000000), wk =   0.0039062
        k(  386) = (  -0.2500000  -0.1443376   0.0791282), wk =   0.0039062
        k(  387) = (  -0.2500000  -0.1443376   0.1582565), wk =   0.0039062
        k(  388) = (  -0.2500000  -0.1443376   0.2373847), wk =   0.0039062
        k(  389) = (  -0.2500000  -0.1443376  -0.3165130), wk =   0.0039062
        k(  390) = (  -0.2500000  -0.1443376  -0.2373847), wk =   0.0039062
        k(  391) = (  -0.2500000  -0.1443376  -0.1582565), wk =   0.0039062
        k(  392) = (  -0.2500000  -0.1443376  -0.0791282), wk =   0.0039062
        k(  393) = (  -0.2500000   0.0000000   0.0000000), wk =   0.0039062
        k(  394) = (  -0.2500000   0.0000000   0.0791282), wk =   0.0039062
        k(  395) = (  -0.2500000   0.0000000   0.1582565), wk =   0.0039062
        k(  396) = (  -0.2500000   0.0000000   0.2373847), wk =   0.0039062
        k(  397) = (  -0.2500000   0.0000000  -0.3165130), wk =   0.0039062
        k(  398) = (  -0.2500000   0.0000000  -0.2373847), wk =   0.0039062
        k(  399) = (  -0.2500000   0.0000000  -0.1582565), wk =   0.0039062
        k(  400) = (  -0.2500000   0.0000000  -0.0791282), wk =   0.0039062
        k(  401) = (  -0.2500000   0.1443376   0.0000000), wk =   0.0039062
        k(  402) = (  -0.2500000   0.1443376   0.0791282), wk =   0.0039062
        k(  403) = (  -0.2500000   0.1443376   0.1582565), wk =   0.0039062
        k(  404) = (  -0.2500000   0.1443376   0.2373847), wk =   0.0039062
        k(  405) = (  -0.2500000   0.1443376  -0.3165130), wk =   0.0039062
        k(  406) = (  -0.2500000   0.1443376  -0.2373847), wk =   0.0039062
        k(  407) = (  -0.2500000   0.1443376  -0.1582565), wk =   0.0039062
        k(  408) = (  -0.2500000   0.1443376  -0.0791282), wk =   0.0039062
        k(  409) = (  -0.2500000   0.2886753   0.0000000), wk =   0.0039062
        k(  410) = (  -0.2500000   0.2886753   0.0791282), wk =   0.0039062
        k(  411) = (  -0.2500000   0.2886753   0.1582565), wk =   0.0039062
        k(  412) = (  -0.2500000   0.2886753   0.2373847), wk =   0.0039062
        k(  413) = (  -0.2500000   0.2886753  -0.3165130), wk =   0.0039062
        k(  414) = (  -0.2500000   0.2886753  -0.2373847), wk =   0.0039062
        k(  415) = (  -0.2500000   0.2886753  -0.1582565), wk =   0.0039062
        k(  416) = (  -0.2500000   0.2886753  -0.0791282), wk =   0.0039062
        k(  417) = (  -0.2500000  -0.7216882   0.0000000), wk =   0.0039062
        k(  418) = (  -0.2500000  -0.7216882   0.0791282), wk =   0.0039062
        k(  419) = (  -0.2500000  -0.7216882   0.1582565), wk =   0.0039062
        k(  420) = (  -0.2500000  -0.7216882   0.2373847), wk =   0.0039062
        k(  421) = (  -0.2500000  -0.7216882  -0.3165130), wk =   0.0039062
        k(  422) = (  -0.2500000  -0.7216882  -0.2373847), wk =   0.0039062
        k(  423) = (  -0.2500000  -0.7216882  -0.1582565), wk =   0.0039062
        k(  424) = (  -0.2500000  -0.7216882  -0.0791282), wk =   0.0039062
        k(  425) = (  -0.2500000  -0.5773505   0.0000000), wk =   0.0039062
        k(  426) = (  -0.2500000  -0.5773505   0.0791282), wk =   0.0039062
        k(  427) = (  -0.2500000  -0.5773505   0.1582565), wk =   0.0039062
        k(  428) = (  -0.2500000  -0.5773505   0.2373847), wk =   0.0039062
        k(  429) = (  -0.2500000  -0.5773505  -0.3165130), wk =   0.0039062
        k(  430) = (  -0.2500000  -0.5773505  -0.2373847), wk =   0.0039062
        k(  431) = (  -0.2500000  -0.5773505  -0.1582565), wk =   0.0039062
        k(  432) = (  -0.2500000  -0.5773505  -0.0791282), wk =   0.0039062
        k(  433) = (  -0.2500000  -0.4330129   0.0000000), wk =   0.0039062
        k(  434) = (  -0.2500000  -0.4330129   0.0791282), wk =   0.0039062
        k(  435) = (  -0.2500000  -0.4330129   0.1582565), wk =   0.0039062
        k(  436) = (  -0.2500000  -0.4330129   0.2373847), wk =   0.0039062
        k(  437) = (  -0.2500000  -0.4330129  -0.3165130), wk =   0.0039062
        k(  438) = (  -0.2500000  -0.4330129  -0.2373847), wk =   0.0039062
        k(  439) = (  -0.2500000  -0.4330129  -0.1582565), wk =   0.0039062
        k(  440) = (  -0.2500000  -0.4330129  -0.0791282), wk =   0.0039062
        k(  441) = (  -0.2500000  -0.2886753   0.0000000), wk =   0.0039062
        k(  442) = (  -0.2500000  -0.2886753   0.0791282), wk =   0.0039062
        k(  443) = (  -0.2500000  -0.2886753   0.1582565), wk =   0.0039062
        k(  444) = (  -0.2500000  -0.2886753   0.2373847), wk =   0.0039062
        k(  445) = (  -0.2500000  -0.2886753  -0.3165130), wk =   0.0039062
        k(  446) = (  -0.2500000  -0.2886753  -0.2373847), wk =   0.0039062
        k(  447) = (  -0.2500000  -0.2886753  -0.1582565), wk =   0.0039062
        k(  448) = (  -0.2500000  -0.2886753  -0.0791282), wk =   0.0039062
        k(  449) = (  -0.1250000  -0.0721688   0.0000000), wk =   0.0039062
        k(  450) = (  -0.1250000  -0.0721688   0.0791282), wk =   0.0039062
        k(  451) = (  -0.1250000  -0.0721688   0.1582565), wk =   0.0039062
        k(  452) = (  -0.1250000  -0.0721688   0.2373847), wk =   0.0039062
        k(  453) = (  -0.1250000  -0.0721688  -0.3165130), wk =   0.0039062
        k(  454) = (  -0.1250000  -0.0721688  -0.2373847), wk =   0.0039062
        k(  455) = (  -0.1250000  -0.0721688  -0.1582565), wk =   0.0039062
        k(  456) = (  -0.1250000  -0.0721688  -0.0791282), wk =   0.0039062
        k(  457) = (  -0.1250000   0.0721688   0.0000000), wk =   0.0039062
        k(  458) = (  -0.1250000   0.0721688   0.0791282), wk =   0.0039062
        k(  459) = (  -0.1250000   0.0721688   0.1582565), wk =   0.0039062
        k(  460) = (  -0.1250000   0.0721688   0.2373847), wk =   0.0039062
        k(  461) = (  -0.1250000   0.0721688  -0.3165130), wk =   0.0039062
        k(  462) = (  -0.1250000   0.0721688  -0.2373847), wk =   0.0039062
        k(  463) = (  -0.1250000   0.0721688  -0.1582565), wk =   0.0039062
        k(  464) = (  -0.1250000   0.0721688  -0.0791282), wk =   0.0039062
        k(  465) = (  -0.1250000   0.2165065   0.0000000), wk =   0.0039062
        k(  466) = (  -0.1250000   0.2165065   0.0791282), wk =   0.0039062
        k(  467) = (  -0.1250000   0.2165065   0.1582565), wk =   0.0039062
        k(  468) = (  -0.1250000   0.2165065   0.2373847), wk =   0.0039062
        k(  469) = (  -0.1250000   0.2165065  -0.3165130), wk =   0.0039062
        k(  470) = (  -0.1250000   0.2165065  -0.2373847), wk =   0.0039062
        k(  471) = (  -0.1250000   0.2165065  -0.1582565), wk =   0.0039062
        k(  472) = (  -0.1250000   0.2165065  -0.0791282), wk =   0.0039062
        k(  473) = (  -0.1250000   0.3608441   0.0000000), wk =   0.0039062
        k(  474) = (  -0.1250000   0.3608441   0.0791282), wk =   0.0039062
        k(  475) = (  -0.1250000   0.3608441   0.1582565), wk =   0.0039062
        k(  476) = (  -0.1250000   0.3608441   0.2373847), wk =   0.0039062
        k(  477) = (  -0.1250000   0.3608441  -0.3165130), wk =   0.0039062
        k(  478) = (  -0.1250000   0.3608441  -0.2373847), wk =   0.0039062
        k(  479) = (  -0.1250000   0.3608441  -0.1582565), wk =   0.0039062
        k(  480) = (  -0.1250000   0.3608441  -0.0791282), wk =   0.0039062
        k(  481) = (  -0.1250000  -0.6495194   0.0000000), wk =   0.0039062
        k(  482) = (  -0.1250000  -0.6495194   0.0791282), wk =   0.0039062
        k(  483) = (  -0.1250000  -0.6495194   0.1582565), wk =   0.0039062
        k(  484) = (  -0.1250000  -0.6495194   0.2373847), wk =   0.0039062
        k(  485) = (  -0.1250000  -0.6495194  -0.3165130), wk =   0.0039062
        k(  486) = (  -0.1250000  -0.6495194  -0.2373847), wk =   0.0039062
        k(  487) = (  -0.1250000  -0.6495194  -0.1582565), wk =   0.0039062
        k(  488) = (  -0.1250000  -0.6495194  -0.0791282), wk =   0.0039062
        k(  489) = (  -0.1250000  -0.5051817   0.0000000), wk =   0.0039062
        k(  490) = (  -0.1250000  -0.5051817   0.0791282), wk =   0.0039062
        k(  491) = (  -0.1250000  -0.5051817   0.1582565), wk =   0.0039062
        k(  492) = (  -0.1250000  -0.5051817   0.2373847), wk =   0.0039062
        k(  493) = (  -0.1250000  -0.5051817  -0.3165130), wk =   0.0039062
        k(  494) = (  -0.1250000  -0.5051817  -0.2373847), wk =   0.0039062
        k(  495) = (  -0.1250000  -0.5051817  -0.1582565), wk =   0.0039062
        k(  496) = (  -0.1250000  -0.5051817  -0.0791282), wk =   0.0039062
        k(  497) = (  -0.1250000  -0.3608441   0.0000000), wk =   0.0039062
        k(  498) = (  -0.1250000  -0.3608441   0.0791282), wk =   0.0039062
        k(  499) = (  -0.1250000  -0.3608441   0.1582565), wk =   0.0039062
        k(  500) = (  -0.1250000  -0.3608441   0.2373847), wk =   0.0039062
        k(  501) = (  -0.1250000  -0.3608441  -0.3165130), wk =   0.0039062
        k(  502) = (  -0.1250000  -0.3608441  -0.2373847), wk =   0.0039062
        k(  503) = (  -0.1250000  -0.3608441  -0.1582565), wk =   0.0039062
        k(  504) = (  -0.1250000  -0.3608441  -0.0791282), wk =   0.0039062
        k(  505) = (  -0.1250000  -0.2165065   0.0000000), wk =   0.0039062
        k(  506) = (  -0.1250000  -0.2165065   0.0791282), wk =   0.0039062
        k(  507) = (  -0.1250000  -0.2165065   0.1582565), wk =   0.0039062
        k(  508) = (  -0.1250000  -0.2165065   0.2373847), wk =   0.0039062
        k(  509) = (  -0.1250000  -0.2165065  -0.3165130), wk =   0.0039062
        k(  510) = (  -0.1250000  -0.2165065  -0.2373847), wk =   0.0039062
        k(  511) = (  -0.1250000  -0.2165065  -0.1582565), wk =   0.0039062
        k(  512) = (  -0.1250000  -0.2165065  -0.0791282), wk =   0.0039062

                       cryst. coord.
        k(    1) = (   0.0000000   0.0000000   0.0000000), wk =   0.0039062
        k(    2) = (   0.0000000   0.0000000   0.1250000), wk =   0.0039062
        k(    3) = (   0.0000000   0.0000000   0.2500000), wk =   0.0039062
        k(    4) = (   0.0000000   0.0000000   0.3750000), wk =   0.0039062
        k(    5) = (   0.0000000   0.0000000  -0.5000000), wk =   0.0039062
        k(    6) = (   0.0000000   0.0000000  -0.3750000), wk =   0.0039062
        k(    7) = (   0.0000000   0.0000000  -0.2500000), wk =   0.0039062
        k(    8) = (   0.0000000   0.0000000  -0.1250000), wk =   0.0039062
        k(    9) = (   0.0000000   0.1250000   0.0000000), wk =   0.0039062
        k(   10) = (   0.0000000   0.1250000   0.1250000), wk =   0.0039062
        k(   11) = (   0.0000000   0.1250000   0.2500000), wk =   0.0039062
        k(   12) = (   0.0000000   0.1250000   0.3750000), wk =   0.0039062
        k(   13) = (   0.0000000   0.1250000  -0.5000000), wk =   0.0039062
        k(   14) = (   0.0000000   0.1250000  -0.3750000), wk =   0.0039062
        k(   15) = (   0.0000000   0.1250000  -0.2500000), wk =   0.0039062
        k(   16) = (   0.0000000   0.1250000  -0.1250000), wk =   0.0039062
        k(   17) = (   0.0000000   0.2500000   0.0000000), wk =   0.0039062
        k(   18) = (   0.0000000   0.2500000   0.1250000), wk =   0.0039062
        k(   19) = (   0.0000000   0.2500000   0.2500000), wk =   0.0039062
        k(   20) = (   0.0000000   0.2500000   0.3750000), wk =   0.0039062
        k(   21) = (   0.0000000   0.2500000  -0.5000000), wk =   0.0039062
        k(   22) = (   0.0000000   0.2500000  -0.3750000), wk =   0.0039062
        k(   23) = (   0.0000000   0.2500000  -0.2500000), wk =   0.0039062
        k(   24) = (   0.0000000   0.2500000  -0.1250000), wk =   0.0039062
        k(   25) = (   0.0000000   0.3750000   0.0000000), wk =   0.0039062
        k(   26) = (   0.0000000   0.3750000   0.1250000), wk =   0.0039062
        k(   27) = (   0.0000000   0.3750000   0.2500000), wk =   0.0039062
        k(   28) = (   0.0000000   0.3750000   0.3750000), wk =   0.0039062
        k(   29) = (   0.0000000   0.3750000  -0.5000000), wk =   0.0039062
        k(   30) = (   0.0000000   0.3750000  -0.3750000), wk =   0.0039062
        k(   31) = (   0.0000000   0.3750000  -0.2500000), wk =   0.0039062
        k(   32) = (   0.0000000   0.3750000  -0.1250000), wk =   0.0039062
        k(   33) = (   0.0000000  -0.5000000   0.0000000), wk =   0.0039062
        k(   34) = (   0.0000000  -0.5000000   0.1250000), wk =   0.0039062
        k(   35) = (   0.0000000  -0.5000000   0.2500000), wk =   0.0039062
        k(   36) = (   0.0000000  -0.5000000   0.3750000), wk =   0.0039062
        k(   37) = (   0.0000000  -0.5000000  -0.5000000), wk =   0.0039062
        k(   38) = (   0.0000000  -0.5000000  -0.3750000), wk =   0.0039062
        k(   39) = (   0.0000000  -0.5000000  -0.2500000), wk =   0.0039062
        k(   40) = (   0.0000000  -0.5000000  -0.1250000), wk =   0.0039062
        k(   41) = (   0.0000000  -0.3750000   0.0000000), wk =   0.0039062
        k(   42) = (   0.0000000  -0.3750000   0.1250000), wk =   0.0039062
        k(   43) = (   0.0000000  -0.3750000   0.2500000), wk =   0.0039062
        k(   44) = (   0.0000000  -0.3750000   0.3750000), wk =   0.0039062
        k(   45) = (   0.0000000  -0.3750000  -0.5000000), wk =   0.0039062
        k(   46) = (   0.0000000  -0.3750000  -0.3750000), wk =   0.0039062
        k(   47) = (   0.0000000  -0.3750000  -0.2500000), wk =   0.0039062
        k(   48) = (   0.0000000  -0.3750000  -0.1250000), wk =   0.0039062
        k(   49) = (   0.0000000  -0.2500000   0.0000000), wk =   0.0039062
        k(   50) = (   0.0000000  -0.2500000   0.1250000), wk =   0.0039062
        k(   51) = (   0.0000000  -0.2500000   0.2500000), wk =   0.0039062
        k(   52) = (   0.0000000  -0.2500000   0.3750000), wk =   0.0039062
        k(   53) = (   0.0000000  -0.2500000  -0.5000000), wk =   0.0039062
        k(   54) = (   0.0000000  -0.2500000  -0.3750000), wk =   0.0039062
        k(   55) = (   0.0000000  -0.2500000  -0.2500000), wk =   0.0039062
        k(   56) = (   0.0000000  -0.2500000  -0.1250000), wk =   0.0039062
        k(   57) = (   0.0000000  -0.1250000   0.0000000), wk =   0.0039062
        k(   58) = (   0.0000000  -0.1250000   0.1250000), wk =   0.0039062
        k(   59) = (   0.0000000  -0.1250000   0.2500000), wk =   0.0039062
        k(   60) = (   0.0000000  -0.1250000   0.3750000), wk =   0.0039062
        k(   61) = (   0.0000000  -0.1250000  -0.5000000), wk =   0.0039062
        k(   62) = (   0.0000000  -0.1250000  -0.3750000), wk =   0.0039062
        k(   63) = (   0.0000000  -0.1250000  -0.2500000), wk =   0.0039062
        k(   64) = (   0.0000000  -0.1250000  -0.1250000), wk =   0.0039062
        k(   65) = (   0.1250000   0.0000000   0.0000000), wk =   0.0039062
        k(   66) = (   0.1250000   0.0000000   0.1250000), wk =   0.0039062
        k(   67) = (   0.1250000   0.0000000   0.2500000), wk =   0.0039062
        k(   68) = (   0.1250000   0.0000000   0.3750000), wk =   0.0039062
        k(   69) = (   0.1250000   0.0000000  -0.5000000), wk =   0.0039062
        k(   70) = (   0.1250000   0.0000000  -0.3750000), wk =   0.0039062
        k(   71) = (   0.1250000   0.0000000  -0.2500000), wk =   0.0039062
        k(   72) = (   0.1250000   0.0000000  -0.1250000), wk =   0.0039062
        k(   73) = (   0.1250000   0.1250000   0.0000000), wk =   0.0039062
        k(   74) = (   0.1250000   0.1250000   0.1250000), wk =   0.0039062
        k(   75) = (   0.1250000   0.1250000   0.2500000), wk =   0.0039062
        k(   76) = (   0.1250000   0.1250000   0.3750000), wk =   0.0039062
        k(   77) = (   0.1250000   0.1250000  -0.5000000), wk =   0.0039062
        k(   78) = (   0.1250000   0.1250000  -0.3750000), wk =   0.0039062
        k(   79) = (   0.1250000   0.1250000  -0.2500000), wk =   0.0039062
        k(   80) = (   0.1250000   0.1250000  -0.1250000), wk =   0.0039062
        k(   81) = (   0.1250000   0.2500000   0.0000000), wk =   0.0039062
        k(   82) = (   0.1250000   0.2500000   0.1250000), wk =   0.0039062
        k(   83) = (   0.1250000   0.2500000   0.2500000), wk =   0.0039062
        k(   84) = (   0.1250000   0.2500000   0.3750000), wk =   0.0039062
        k(   85) = (   0.1250000   0.2500000  -0.5000000), wk =   0.0039062
        k(   86) = (   0.1250000   0.2500000  -0.3750000), wk =   0.0039062
        k(   87) = (   0.1250000   0.2500000  -0.2500000), wk =   0.0039062
        k(   88) = (   0.1250000   0.2500000  -0.1250000), wk =   0.0039062
        k(   89) = (   0.1250000   0.3750000   0.0000000), wk =   0.0039062
        k(   90) = (   0.1250000   0.3750000   0.1250000), wk =   0.0039062
        k(   91) = (   0.1250000   0.3750000   0.2500000), wk =   0.0039062
        k(   92) = (   0.1250000   0.3750000   0.3750000), wk =   0.0039062
        k(   93) = (   0.1250000   0.3750000  -0.5000000), wk =   0.0039062
        k(   94) = (   0.1250000   0.3750000  -0.3750000), wk =   0.0039062
        k(   95) = (   0.1250000   0.3750000  -0.2500000), wk =   0.0039062
        k(   96) = (   0.1250000   0.3750000  -0.1250000), wk =   0.0039062
        k(   97) = (   0.1250000  -0.5000000   0.0000000), wk =   0.0039062
        k(   98) = (   0.1250000  -0.5000000   0.1250000), wk =   0.0039062
        k(   99) = (   0.1250000  -0.5000000   0.2500000), wk =   0.0039062
        k(  100) = (   0.1250000  -0.5000000   0.3750000), wk =   0.0039062
        k(  101) = (   0.1250000  -0.5000000  -0.5000000), wk =   0.0039062
        k(  102) = (   0.1250000  -0.5000000  -0.3750000), wk =   0.0039062
        k(  103) = (   0.1250000  -0.5000000  -0.2500000), wk =   0.0039062
        k(  104) = (   0.1250000  -0.5000000  -0.1250000), wk =   0.0039062
        k(  105) = (   0.1250000  -0.3750000   0.0000000), wk =   0.0039062
        k(  106) = (   0.1250000  -0.3750000   0.1250000), wk =   0.0039062
        k(  107) = (   0.1250000  -0.3750000   0.2500000), wk =   0.0039062
        k(  108) = (   0.1250000  -0.3750000   0.3750000), wk =   0.0039062
        k(  109) = (   0.1250000  -0.3750000  -0.5000000), wk =   0.0039062
        k(  110) = (   0.1250000  -0.3750000  -0.3750000), wk =   0.0039062
        k(  111) = (   0.1250000  -0.3750000  -0.2500000), wk =   0.0039062
        k(  112) = (   0.1250000  -0.3750000  -0.1250000), wk =   0.0039062
        k(  113) = (   0.1250000  -0.2500000   0.0000000), wk =   0.0039062
        k(  114) = (   0.1250000  -0.2500000   0.1250000), wk =   0.0039062
        k(  115) = (   0.1250000  -0.2500000   0.2500000), wk =   0.0039062
        k(  116) = (   0.1250000  -0.2500000   0.3750000), wk =   0.0039062
        k(  117) = (   0.1250000  -0.2500000  -0.5000000), wk =   0.0039062
        k(  118) = (   0.1250000  -0.2500000  -0.3750000), wk =   0.0039062
        k(  119) = (   0.1250000  -0.2500000  -0.2500000), wk =   0.0039062
        k(  120) = (   0.1250000  -0.2500000  -0.1250000), wk =   0.0039062
        k(  121) = (   0.1250000  -0.1250000   0.0000000), wk =   0.0039062
        k(  122) = (   0.1250000  -0.1250000   0.1250000), wk =   0.0039062
        k(  123) = (   0.1250000  -0.1250000   0.2500000), wk =   0.0039062
        k(  124) = (   0.1250000  -0.1250000   0.3750000), wk =   0.0039062
        k(  125) = (   0.1250000  -0.1250000  -0.5000000), wk =   0.0039062
        k(  126) = (   0.1250000  -0.1250000  -0.3750000), wk =   0.0039062
        k(  127) = (   0.1250000  -0.1250000  -0.2500000), wk =   0.0039062
        k(  128) = (   0.1250000  -0.1250000  -0.1250000), wk =   0.0039062
        k(  129) = (   0.2500000   0.0000000   0.0000000), wk =   0.0039062
        k(  130) = (   0.2500000   0.0000000   0.1250000), wk =   0.0039062
        k(  131) = (   0.2500000   0.0000000   0.2500000), wk =   0.0039062
        k(  132) = (   0.2500000   0.0000000   0.3750000), wk =   0.0039062
        k(  133) = (   0.2500000   0.0000000  -0.5000000), wk =   0.0039062
        k(  134) = (   0.2500000   0.0000000  -0.3750000), wk =   0.0039062
        k(  135) = (   0.2500000   0.0000000  -0.2500000), wk =   0.0039062
        k(  136) = (   0.2500000   0.0000000  -0.1250000), wk =   0.0039062
        k(  137) = (   0.2500000   0.1250000   0.0000000), wk =   0.0039062
        k(  138) = (   0.2500000   0.1250000   0.1250000), wk =   0.0039062
        k(  139) = (   0.2500000   0.1250000   0.2500000), wk =   0.0039062
        k(  140) = (   0.2500000   0.1250000   0.3750000), wk =   0.0039062
        k(  141) = (   0.2500000   0.1250000  -0.5000000), wk =   0.0039062
        k(  142) = (   0.2500000   0.1250000  -0.3750000), wk =   0.0039062
        k(  143) = (   0.2500000   0.1250000  -0.2500000), wk =   0.0039062
        k(  144) = (   0.2500000   0.1250000  -0.1250000), wk =   0.0039062
        k(  145) = (   0.2500000   0.2500000   0.0000000), wk =   0.0039062
        k(  146) = (   0.2500000   0.2500000   0.1250000), wk =   0.0039062
        k(  147) = (   0.2500000   0.2500000   0.2500000), wk =   0.0039062
        k(  148) = (   0.2500000   0.2500000   0.3750000), wk =   0.0039062
        k(  149) = (   0.2500000   0.2500000  -0.5000000), wk =   0.0039062
        k(  150) = (   0.2500000   0.2500000  -0.3750000), wk =   0.0039062
        k(  151) = (   0.2500000   0.2500000  -0.2500000), wk =   0.0039062
        k(  152) = (   0.2500000   0.2500000  -0.1250000), wk =   0.0039062
        k(  153) = (   0.2500000   0.3750000   0.0000000), wk =   0.0039062
        k(  154) = (   0.2500000   0.3750000   0.1250000), wk =   0.0039062
        k(  155) = (   0.2500000   0.3750000   0.2500000), wk =   0.0039062
        k(  156) = (   0.2500000   0.3750000   0.3750000), wk =   0.0039062
        k(  157) = (   0.2500000   0.3750000  -0.5000000), wk =   0.0039062
        k(  158) = (   0.2500000   0.3750000  -0.3750000), wk =   0.0039062
        k(  159) = (   0.2500000   0.3750000  -0.2500000), wk =   0.0039062
        k(  160) = (   0.2500000   0.3750000  -0.1250000), wk =   0.0039062
        k(  161) = (   0.2500000  -0.5000000   0.0000000), wk =   0.0039062
        k(  162) = (   0.2500000  -0.5000000   0.1250000), wk =   0.0039062
        k(  163) = (   0.2500000  -0.5000000   0.2500000), wk =   0.0039062
        k(  164) = (   0.2500000  -0.5000000   0.3750000), wk =   0.0039062
        k(  165) = (   0.2500000  -0.5000000  -0.5000000), wk =   0.0039062
        k(  166) = (   0.2500000  -0.5000000  -0.3750000), wk =   0.0039062
        k(  167) = (   0.2500000  -0.5000000  -0.2500000), wk =   0.0039062
        k(  168) = (   0.2500000  -0.5000000  -0.1250000), wk =   0.0039062
        k(  169) = (   0.2500000  -0.3750000   0.0000000), wk =   0.0039062
        k(  170) = (   0.2500000  -0.3750000   0.1250000), wk =   0.0039062
        k(  171) = (   0.2500000  -0.3750000   0.2500000), wk =   0.0039062
        k(  172) = (   0.2500000  -0.3750000   0.3750000), wk =   0.0039062
        k(  173) = (   0.2500000  -0.3750000  -0.5000000), wk =   0.0039062
        k(  174) = (   0.2500000  -0.3750000  -0.3750000), wk =   0.0039062
        k(  175) = (   0.2500000  -0.3750000  -0.2500000), wk =   0.0039062
        k(  176) = (   0.2500000  -0.3750000  -0.1250000), wk =   0.0039062
        k(  177) = (   0.2500000  -0.2500000   0.0000000), wk =   0.0039062
        k(  178) = (   0.2500000  -0.2500000   0.1250000), wk =   0.0039062
        k(  179) = (   0.2500000  -0.2500000   0.2500000), wk =   0.0039062
        k(  180) = (   0.2500000  -0.2500000   0.3750000), wk =   0.0039062
        k(  181) = (   0.2500000  -0.2500000  -0.5000000), wk =   0.0039062
        k(  182) = (   0.2500000  -0.2500000  -0.3750000), wk =   0.0039062
        k(  183) = (   0.2500000  -0.2500000  -0.2500000), wk =   0.0039062
        k(  184) = (   0.2500000  -0.2500000  -0.1250000), wk =   0.0039062
        k(  185) = (   0.2500000  -0.1250000   0.0000000), wk =   0.0039062
        k(  186) = (   0.2500000  -0.1250000   0.1250000), wk =   0.0039062
        k(  187) = (   0.2500000  -0.1250000   0.2500000), wk =   0.0039062
        k(  188) = (   0.2500000  -0.1250000   0.3750000), wk =   0.0039062
        k(  189) = (   0.2500000  -0.1250000  -0.5000000), wk =   0.0039062
        k(  190) = (   0.2500000  -0.1250000  -0.3750000), wk =   0.0039062
        k(  191) = (   0.2500000  -0.1250000  -0.2500000), wk =   0.0039062
        k(  192) = (   0.2500000  -0.1250000  -0.1250000), wk =   0.0039062
        k(  193) = (   0.3750000   0.0000000   0.0000000), wk =   0.0039062
        k(  194) = (   0.3750000   0.0000000   0.1250000), wk =   0.0039062
        k(  195) = (   0.3750000   0.0000000   0.2500000), wk =   0.0039062
        k(  196) = (   0.3750000   0.0000000   0.3750000), wk =   0.0039062
        k(  197) = (   0.3750000   0.0000000  -0.5000000), wk =   0.0039062
        k(  198) = (   0.3750000   0.0000000  -0.3750000), wk =   0.0039062
        k(  199) = (   0.3750000   0.0000000  -0.2500000), wk =   0.0039062
        k(  200) = (   0.3750000   0.0000000  -0.1250000), wk =   0.0039062
        k(  201) = (   0.3750000   0.1250000   0.0000000), wk =   0.0039062
        k(  202) = (   0.3750000   0.1250000   0.1250000), wk =   0.0039062
        k(  203) = (   0.3750000   0.1250000   0.2500000), wk =   0.0039062
        k(  204) = (   0.3750000   0.1250000   0.3750000), wk =   0.0039062
        k(  205) = (   0.3750000   0.1250000  -0.5000000), wk =   0.0039062
        k(  206) = (   0.3750000   0.1250000  -0.3750000), wk =   0.0039062
        k(  207) = (   0.3750000   0.1250000  -0.2500000), wk =   0.0039062
        k(  208) = (   0.3750000   0.1250000  -0.1250000), wk =   0.0039062
        k(  209) = (   0.3750000   0.2500000   0.0000000), wk =   0.0039062
        k(  210) = (   0.3750000   0.2500000   0.1250000), wk =   0.0039062
        k(  211) = (   0.3750000   0.2500000   0.2500000), wk =   0.0039062
        k(  212) = (   0.3750000   0.2500000   0.3750000), wk =   0.0039062
        k(  213) = (   0.3750000   0.2500000  -0.5000000), wk =   0.0039062
        k(  214) = (   0.3750000   0.2500000  -0.3750000), wk =   0.0039062
        k(  215) = (   0.3750000   0.2500000  -0.2500000), wk =   0.0039062
        k(  216) = (   0.3750000   0.2500000  -0.1250000), wk =   0.0039062
        k(  217) = (   0.3750000   0.3750000   0.0000000), wk =   0.0039062
        k(  218) = (   0.3750000   0.3750000   0.1250000), wk =   0.0039062
        k(  219) = (   0.3750000   0.3750000   0.2500000), wk =   0.0039062
        k(  220) = (   0.3750000   0.3750000   0.3750000), wk =   0.0039062
        k(  221) = (   0.3750000   0.3750000  -0.5000000), wk =   0.0039062
        k(  222) = (   0.3750000   0.3750000  -0.3750000), wk =   0.0039062
        k(  223) = (   0.3750000   0.3750000  -0.2500000), wk =   0.0039062
        k(  224) = (   0.3750000   0.3750000  -0.1250000), wk =   0.0039062
        k(  225) = (   0.3750000  -0.5000000   0.0000000), wk =   0.0039062
        k(  226) = (   0.3750000  -0.5000000   0.1250000), wk =   0.0039062
        k(  227) = (   0.3750000  -0.5000000   0.2500000), wk =   0.0039062
        k(  228) = (   0.3750000  -0.5000000   0.3750000), wk =   0.0039062
        k(  229) = (   0.3750000  -0.5000000  -0.5000000), wk =   0.0039062
        k(  230) = (   0.3750000  -0.5000000  -0.3750000), wk =   0.0039062
        k(  231) = (   0.3750000  -0.5000000  -0.2500000), wk =   0.0039062
        k(  232) = (   0.3750000  -0.5000000  -0.1250000), wk =   0.0039062
        k(  233) = (   0.3750000  -0.3750000   0.0000000), wk =   0.0039062
        k(  234) = (   0.3750000  -0.3750000   0.1250000), wk =   0.0039062
        k(  235) = (   0.3750000  -0.3750000   0.2500000), wk =   0.0039062
        k(  236) = (   0.3750000  -0.3750000   0.3750000), wk =   0.0039062
        k(  237) = (   0.3750000  -0.3750000  -0.5000000), wk =   0.0039062
        k(  238) = (   0.3750000  -0.3750000  -0.3750000), wk =   0.0039062
        k(  239) = (   0.3750000  -0.3750000  -0.2500000), wk =   0.0039062
        k(  240) = (   0.3750000  -0.3750000  -0.1250000), wk =   0.0039062
        k(  241) = (   0.3750000  -0.2500000   0.0000000), wk =   0.0039062
        k(  242) = (   0.3750000  -0.2500000   0.1250000), wk =   0.0039062
        k(  243) = (   0.3750000  -0.2500000   0.2500000), wk =   0.0039062
        k(  244) = (   0.3750000  -0.2500000   0.3750000), wk =   0.0039062
        k(  245) = (   0.3750000  -0.2500000  -0.5000000), wk =   0.0039062
        k(  246) = (   0.3750000  -0.2500000  -0.3750000), wk =   0.0039062
        k(  247) = (   0.3750000  -0.2500000  -0.2500000), wk =   0.0039062
        k(  248) = (   0.3750000  -0.2500000  -0.1250000), wk =   0.0039062
        k(  249) = (   0.3750000  -0.1250000   0.0000000), wk =   0.0039062
        k(  250) = (   0.3750000  -0.1250000   0.1250000), wk =   0.0039062
        k(  251) = (   0.3750000  -0.1250000   0.2500000), wk =   0.0039062
        k(  252) = (   0.3750000  -0.1250000   0.3750000), wk =   0.0039062
        k(  253) = (   0.3750000  -0.1250000  -0.5000000), wk =   0.0039062
        k(  254) = (   0.3750000  -0.1250000  -0.3750000), wk =   0.0039062
        k(  255) = (   0.3750000  -0.1250000  -0.2500000), wk =   0.0039062
        k(  256) = (   0.3750000  -0.1250000  -0.1250000), wk =   0.0039062
        k(  257) = (  -0.5000000   0.0000000   0.0000000), wk =   0.0039062
        k(  258) = (  -0.5000000   0.0000000   0.1250000), wk =   0.0039062
        k(  259) = (  -0.5000000   0.0000000   0.2500000), wk =   0.0039062
        k(  260) = (  -0.5000000   0.0000000   0.3750000), wk =   0.0039062
        k(  261) = (  -0.5000000   0.0000000  -0.5000000), wk =   0.0039062
        k(  262) = (  -0.5000000   0.0000000  -0.3750000), wk =   0.0039062
        k(  263) = (  -0.5000000   0.0000000  -0.2500000), wk =   0.0039062
        k(  264) = (  -0.5000000   0.0000000  -0.1250000), wk =   0.0039062
        k(  265) = (  -0.5000000   0.1250000   0.0000000), wk =   0.0039062
        k(  266) = (  -0.5000000   0.1250000   0.1250000), wk =   0.0039062
        k(  267) = (  -0.5000000   0.1250000   0.2500000), wk =   0.0039062
        k(  268) = (  -0.5000000   0.1250000   0.3750000), wk =   0.0039062
        k(  269) = (  -0.5000000   0.1250000  -0.5000000), wk =   0.0039062
        k(  270) = (  -0.5000000   0.1250000  -0.3750000), wk =   0.0039062
        k(  271) = (  -0.5000000   0.1250000  -0.2500000), wk =   0.0039062
        k(  272) = (  -0.5000000   0.1250000  -0.1250000), wk =   0.0039062
        k(  273) = (  -0.5000000   0.2500000   0.0000000), wk =   0.0039062
        k(  274) = (  -0.5000000   0.2500000   0.1250000), wk =   0.0039062
        k(  275) = (  -0.5000000   0.2500000   0.2500000), wk =   0.0039062
        k(  276) = (  -0.5000000   0.2500000   0.3750000), wk =   0.0039062
        k(  277) = (  -0.5000000   0.2500000  -0.5000000), wk =   0.0039062
        k(  278) = (  -0.5000000   0.2500000  -0.3750000), wk =   0.0039062
        k(  279) = (  -0.5000000   0.2500000  -0.2500000), wk =   0.0039062
        k(  280) = (  -0.5000000   0.2500000  -0.1250000), wk =   0.0039062
        k(  281) = (  -0.5000000   0.3750000   0.0000000), wk =   0.0039062
        k(  282) = (  -0.5000000   0.3750000   0.1250000), wk =   0.0039062
        k(  283) = (  -0.5000000   0.3750000   0.2500000), wk =   0.0039062
        k(  284) = (  -0.5000000   0.3750000   0.3750000), wk =   0.0039062
        k(  285) = (  -0.5000000   0.3750000  -0.5000000), wk =   0.0039062
        k(  286) = (  -0.5000000   0.3750000  -0.3750000), wk =   0.0039062
        k(  287) = (  -0.5000000   0.3750000  -0.2500000), wk =   0.0039062
        k(  288) = (  -0.5000000   0.3750000  -0.1250000), wk =   0.0039062
        k(  289) = (  -0.5000000  -0.5000000   0.0000000), wk =   0.0039062
        k(  290) = (  -0.5000000  -0.5000000   0.1250000), wk =   0.0039062
        k(  291) = (  -0.5000000  -0.5000000   0.2500000), wk =   0.0039062
        k(  292) = (  -0.5000000  -0.5000000   0.3750000), wk =   0.0039062
        k(  293) = (  -0.5000000  -0.5000000  -0.5000000), wk =   0.0039062
        k(  294) = (  -0.5000000  -0.5000000  -0.3750000), wk =   0.0039062
        k(  295) = (  -0.5000000  -0.5000000  -0.2500000), wk =   0.0039062
        k(  296) = (  -0.5000000  -0.5000000  -0.1250000), wk =   0.0039062
        k(  297) = (  -0.5000000  -0.3750000   0.0000000), wk =   0.0039062
        k(  298) = (  -0.5000000  -0.3750000   0.1250000), wk =   0.0039062
        k(  299) = (  -0.5000000  -0.3750000   0.2500000), wk =   0.0039062
        k(  300) = (  -0.5000000  -0.3750000   0.3750000), wk =   0.0039062
        k(  301) = (  -0.5000000  -0.3750000  -0.5000000), wk =   0.0039062
        k(  302) = (  -0.5000000  -0.3750000  -0.3750000), wk =   0.0039062
        k(  303) = (  -0.5000000  -0.3750000  -0.2500000), wk =   0.0039062
        k(  304) = (  -0.5000000  -0.3750000  -0.1250000), wk =   0.0039062
        k(  305) = (  -0.5000000  -0.2500000   0.0000000), wk =   0.0039062
        k(  306) = (  -0.5000000  -0.2500000   0.1250000), wk =   0.0039062
        k(  307) = (  -0.5000000  -0.2500000   0.2500000), wk =   0.0039062
        k(  308) = (  -0.5000000  -0.2500000   0.3750000), wk =   0.0039062
        k(  309) = (  -0.5000000  -0.2500000  -0.5000000), wk =   0.0039062
        k(  310) = (  -0.5000000  -0.2500000  -0.3750000), wk =   0.0039062
        k(  311) = (  -0.5000000  -0.2500000  -0.2500000), wk =   0.0039062
        k(  312) = (  -0.5000000  -0.2500000  -0.1250000), wk =   0.0039062
        k(  313) = (  -0.5000000  -0.1250000   0.0000000), wk =   0.0039062
        k(  314) = (  -0.5000000  -0.1250000   0.1250000), wk =   0.0039062
        k(  315) = (  -0.5000000  -0.1250000   0.2500000), wk =   0.0039062
        k(  316) = (  -0.5000000  -0.1250000   0.3750000), wk =   0.0039062
        k(  317) = (  -0.5000000  -0.1250000  -0.5000000), wk =   0.0039062
        k(  318) = (  -0.5000000  -0.1250000  -0.3750000), wk =   0.0039062
        k(  319) = (  -0.5000000  -0.1250000  -0.2500000), wk =   0.0039062
        k(  320) = (  -0.5000000  -0.1250000  -0.1250000), wk =   0.0039062
        k(  321) = (  -0.3750000   0.0000000   0.0000000), wk =   0.0039062
        k(  322) = (  -0.3750000   0.0000000   0.1250000), wk =   0.0039062
        k(  323) = (  -0.3750000   0.0000000   0.2500000), wk =   0.0039062
        k(  324) = (  -0.3750000   0.0000000   0.3750000), wk =   0.0039062
        k(  325) = (  -0.3750000   0.0000000  -0.5000000), wk =   0.0039062
        k(  326) = (  -0.3750000   0.0000000  -0.3750000), wk =   0.0039062
        k(  327) = (  -0.3750000   0.0000000  -0.2500000), wk =   0.0039062
        k(  328) = (  -0.3750000   0.0000000  -0.1250000), wk =   0.0039062
        k(  329) = (  -0.3750000   0.1250000   0.0000000), wk =   0.0039062
        k(  330) = (  -0.3750000   0.1250000   0.1250000), wk =   0.0039062
        k(  331) = (  -0.3750000   0.1250000   0.2500000), wk =   0.0039062
        k(  332) = (  -0.3750000   0.1250000   0.3750000), wk =   0.0039062
        k(  333) = (  -0.3750000   0.1250000  -0.5000000), wk =   0.0039062
        k(  334) = (  -0.3750000   0.1250000  -0.3750000), wk =   0.0039062
        k(  335) = (  -0.3750000   0.1250000  -0.2500000), wk =   0.0039062
        k(  336) = (  -0.3750000   0.1250000  -0.1250000), wk =   0.0039062
        k(  337) = (  -0.3750000   0.2500000   0.0000000), wk =   0.0039062
        k(  338) = (  -0.3750000   0.2500000   0.1250000), wk =   0.0039062
        k(  339) = (  -0.3750000   0.2500000   0.2500000), wk =   0.0039062
        k(  340) = (  -0.3750000   0.2500000   0.3750000), wk =   0.0039062
        k(  341) = (  -0.3750000   0.2500000  -0.5000000), wk =   0.0039062
        k(  342) = (  -0.3750000   0.2500000  -0.3750000), wk =   0.0039062
        k(  343) = (  -0.3750000   0.2500000  -0.2500000), wk =   0.0039062
        k(  344) = (  -0.3750000   0.2500000  -0.1250000), wk =   0.0039062
        k(  345) = (  -0.3750000   0.3750000   0.0000000), wk =   0.0039062
        k(  346) = (  -0.3750000   0.3750000   0.1250000), wk =   0.0039062
        k(  347) = (  -0.3750000   0.3750000   0.2500000), wk =   0.0039062
        k(  348) = (  -0.3750000   0.3750000   0.3750000), wk =   0.0039062
        k(  349) = (  -0.3750000   0.3750000  -0.5000000), wk =   0.0039062
        k(  350) = (  -0.3750000   0.3750000  -0.3750000), wk =   0.0039062
        k(  351) = (  -0.3750000   0.3750000  -0.2500000), wk =   0.0039062
        k(  352) = (  -0.3750000   0.3750000  -0.1250000), wk =   0.0039062
        k(  353) = (  -0.3750000  -0.5000000   0.0000000), wk =   0.0039062
        k(  354) = (  -0.3750000  -0.5000000   0.1250000), wk =   0.0039062
        k(  355) = (  -0.3750000  -0.5000000   0.2500000), wk =   0.0039062
        k(  356) = (  -0.3750000  -0.5000000   0.3750000), wk =   0.0039062
        k(  357) = (  -0.3750000  -0.5000000  -0.5000000), wk =   0.0039062
        k(  358) = (  -0.3750000  -0.5000000  -0.3750000), wk =   0.0039062
        k(  359) = (  -0.3750000  -0.5000000  -0.2500000), wk =   0.0039062
        k(  360) = (  -0.3750000  -0.5000000  -0.1250000), wk =   0.0039062
        k(  361) = (  -0.3750000  -0.3750000   0.0000000), wk =   0.0039062
        k(  362) = (  -0.3750000  -0.3750000   0.1250000), wk =   0.0039062
        k(  363) = (  -0.3750000  -0.3750000   0.2500000), wk =   0.0039062
        k(  364) = (  -0.3750000  -0.3750000   0.3750000), wk =   0.0039062
        k(  365) = (  -0.3750000  -0.3750000  -0.5000000), wk =   0.0039062
        k(  366) = (  -0.3750000  -0.3750000  -0.3750000), wk =   0.0039062
        k(  367) = (  -0.3750000  -0.3750000  -0.2500000), wk =   0.0039062
        k(  368) = (  -0.3750000  -0.3750000  -0.1250000), wk =   0.0039062
        k(  369) = (  -0.3750000  -0.2500000   0.0000000), wk =   0.0039062
        k(  370) = (  -0.3750000  -0.2500000   0.1250000), wk =   0.0039062
        k(  371) = (  -0.3750000  -0.2500000   0.2500000), wk =   0.0039062
        k(  372) = (  -0.3750000  -0.2500000   0.3750000), wk =   0.0039062
        k(  373) = (  -0.3750000  -0.2500000  -0.5000000), wk =   0.0039062
        k(  374) = (  -0.3750000  -0.2500000  -0.3750000), wk =   0.0039062
        k(  375) = (  -0.3750000  -0.2500000  -0.2500000), wk =   0.0039062
        k(  376) = (  -0.3750000  -0.2500000  -0.1250000), wk =   0.0039062
        k(  377) = (  -0.3750000  -0.1250000   0.0000000), wk =   0.0039062
        k(  378) = (  -0.3750000  -0.1250000   0.1250000), wk =   0.0039062
        k(  379) = (  -0.3750000  -0.1250000   0.2500000), wk =   0.0039062
        k(  380) = (  -0.3750000  -0.1250000   0.3750000), wk =   0.0039062
        k(  381) = (  -0.3750000  -0.1250000  -0.5000000), wk =   0.0039062
        k(  382) = (  -0.3750000  -0.1250000  -0.3750000), wk =   0.0039062
        k(  383) = (  -0.3750000  -0.1250000  -0.2500000), wk =   0.0039062
        k(  384) = (  -0.3750000  -0.1250000  -0.1250000), wk =   0.0039062
        k(  385) = (  -0.2500000   0.0000000   0.0000000), wk =   0.0039062
        k(  386) = (  -0.2500000   0.0000000   0.1250000), wk =   0.0039062
        k(  387) = (  -0.2500000   0.0000000   0.2500000), wk =   0.0039062
        k(  388) = (  -0.2500000   0.0000000   0.3750000), wk =   0.0039062
        k(  389) = (  -0.2500000   0.0000000  -0.5000000), wk =   0.0039062
        k(  390) = (  -0.2500000   0.0000000  -0.3750000), wk =   0.0039062
        k(  391) = (  -0.2500000   0.0000000  -0.2500000), wk =   0.0039062
        k(  392) = (  -0.2500000   0.0000000  -0.1250000), wk =   0.0039062
        k(  393) = (  -0.2500000   0.1250000   0.0000000), wk =   0.0039062
        k(  394) = (  -0.2500000   0.1250000   0.1250000), wk =   0.0039062
        k(  395) = (  -0.2500000   0.1250000   0.2500000), wk =   0.0039062
        k(  396) = (  -0.2500000   0.1250000   0.3750000), wk =   0.0039062
        k(  397) = (  -0.2500000   0.1250000  -0.5000000), wk =   0.0039062
        k(  398) = (  -0.2500000   0.1250000  -0.3750000), wk =   0.0039062
        k(  399) = (  -0.2500000   0.1250000  -0.2500000), wk =   0.0039062
        k(  400) = (  -0.2500000   0.1250000  -0.1250000), wk =   0.0039062
        k(  401) = (  -0.2500000   0.2500000   0.0000000), wk =   0.0039062
        k(  402) = (  -0.2500000   0.2500000   0.1250000), wk =   0.0039062
        k(  403) = (  -0.2500000   0.2500000   0.2500000), wk =   0.0039062
        k(  404) = (  -0.2500000   0.2500000   0.3750000), wk =   0.0039062
        k(  405) = (  -0.2500000   0.2500000  -0.5000000), wk =   0.0039062
        k(  406) = (  -0.2500000   0.2500000  -0.3750000), wk =   0.0039062
        k(  407) = (  -0.2500000   0.2500000  -0.2500000), wk =   0.0039062
        k(  408) = (  -0.2500000   0.2500000  -0.1250000), wk =   0.0039062
        k(  409) = (  -0.2500000   0.3750000   0.0000000), wk =   0.0039062
        k(  410) = (  -0.2500000   0.3750000   0.1250000), wk =   0.0039062
        k(  411) = (  -0.2500000   0.3750000   0.2500000), wk =   0.0039062
        k(  412) = (  -0.2500000   0.3750000   0.3750000), wk =   0.0039062
        k(  413) = (  -0.2500000   0.3750000  -0.5000000), wk =   0.0039062
        k(  414) = (  -0.2500000   0.3750000  -0.3750000), wk =   0.0039062
        k(  415) = (  -0.2500000   0.3750000  -0.2500000), wk =   0.0039062
        k(  416) = (  -0.2500000   0.3750000  -0.1250000), wk =   0.0039062
        k(  417) = (  -0.2500000  -0.5000000   0.0000000), wk =   0.0039062
        k(  418) = (  -0.2500000  -0.5000000   0.1250000), wk =   0.0039062
        k(  419) = (  -0.2500000  -0.5000000   0.2500000), wk =   0.0039062
        k(  420) = (  -0.2500000  -0.5000000   0.3750000), wk =   0.0039062
        k(  421) = (  -0.2500000  -0.5000000  -0.5000000), wk =   0.0039062
        k(  422) = (  -0.2500000  -0.5000000  -0.3750000), wk =   0.0039062
        k(  423) = (  -0.2500000  -0.5000000  -0.2500000), wk =   0.0039062
        k(  424) = (  -0.2500000  -0.5000000  -0.1250000), wk =   0.0039062
        k(  425) = (  -0.2500000  -0.3750000   0.0000000), wk =   0.0039062
        k(  426) = (  -0.2500000  -0.3750000   0.1250000), wk =   0.0039062
        k(  427) = (  -0.2500000  -0.3750000   0.2500000), wk =   0.0039062
        k(  428) = (  -0.2500000  -0.3750000   0.3750000), wk =   0.0039062
        k(  429) = (  -0.2500000  -0.3750000  -0.5000000), wk =   0.0039062
        k(  430) = (  -0.2500000  -0.3750000  -0.3750000), wk =   0.0039062
        k(  431) = (  -0.2500000  -0.3750000  -0.2500000), wk =   0.0039062
        k(  432) = (  -0.2500000  -0.3750000  -0.1250000), wk =   0.0039062
        k(  433) = (  -0.2500000  -0.2500000   0.0000000), wk =   0.0039062
        k(  434) = (  -0.2500000  -0.2500000   0.1250000), wk =   0.0039062
        k(  435) = (  -0.2500000  -0.2500000   0.2500000), wk =   0.0039062
        k(  436) = (  -0.2500000  -0.2500000   0.3750000), wk =   0.0039062
        k(  437) = (  -0.2500000  -0.2500000  -0.5000000), wk =   0.0039062
        k(  438) = (  -0.2500000  -0.2500000  -0.3750000), wk =   0.0039062
        k(  439) = (  -0.2500000  -0.2500000  -0.2500000), wk =   0.0039062
        k(  440) = (  -0.2500000  -0.2500000  -0.1250000), wk =   0.0039062
        k(  441) = (  -0.2500000  -0.1250000   0.0000000), wk =   0.0039062
        k(  442) = (  -0.2500000  -0.1250000   0.1250000), wk =   0.0039062
        k(  443) = (  -0.2500000  -0.1250000   0.2500000), wk =   0.0039062
        k(  444) = (  -0.2500000  -0.1250000   0.3750000), wk =   0.0039062
        k(  445) = (  -0.2500000  -0.1250000  -0.5000000), wk =   0.0039062
        k(  446) = (  -0.2500000  -0.1250000  -0.3750000), wk =   0.0039062
        k(  447) = (  -0.2500000  -0.1250000  -0.2500000), wk =   0.0039062
        k(  448) = (  -0.2500000  -0.1250000  -0.1250000), wk =   0.0039062
        k(  449) = (  -0.1250000   0.0000000   0.0000000), wk =   0.0039062
        k(  450) = (  -0.1250000   0.0000000   0.1250000), wk =   0.0039062
        k(  451) = (  -0.1250000   0.0000000   0.2500000), wk =   0.0039062
        k(  452) = (  -0.1250000   0.0000000   0.3750000), wk =   0.0039062
        k(  453) = (  -0.1250000   0.0000000  -0.5000000), wk =   0.0039062
        k(  454) = (  -0.1250000   0.0000000  -0.3750000), wk =   0.0039062
        k(  455) = (  -0.1250000   0.0000000  -0.2500000), wk =   0.0039062
        k(  456) = (  -0.1250000   0.0000000  -0.1250000), wk =   0.0039062
        k(  457) = (  -0.1250000   0.1250000   0.0000000), wk =   0.0039062
        k(  458) = (  -0.1250000   0.1250000   0.1250000), wk =   0.0039062
        k(  459) = (  -0.1250000   0.1250000   0.2500000), wk =   0.0039062
        k(  460) = (  -0.1250000   0.1250000   0.3750000), wk =   0.0039062
        k(  461) = (  -0.1250000   0.1250000  -0.5000000), wk =   0.0039062
        k(  462) = (  -0.1250000   0.1250000  -0.3750000), wk =   0.0039062
        k(  463) = (  -0.1250000   0.1250000  -0.2500000), wk =   0.0039062
        k(  464) = (  -0.1250000   0.1250000  -0.1250000), wk =   0.0039062
        k(  465) = (  -0.1250000   0.2500000   0.0000000), wk =   0.0039062
        k(  466) = (  -0.1250000   0.2500000   0.1250000), wk =   0.0039062
        k(  467) = (  -0.1250000   0.2500000   0.2500000), wk =   0.0039062
        k(  468) = (  -0.1250000   0.2500000   0.3750000), wk =   0.0039062
        k(  469) = (  -0.1250000   0.2500000  -0.5000000), wk =   0.0039062
        k(  470) = (  -0.1250000   0.2500000  -0.3750000), wk =   0.0039062
        k(  471) = (  -0.1250000   0.2500000  -0.2500000), wk =   0.0039062
        k(  472) = (  -0.1250000   0.2500000  -0.1250000), wk =   0.0039062
        k(  473) = (  -0.1250000   0.3750000   0.0000000), wk =   0.0039062
        k(  474) = (  -0.1250000   0.3750000   0.1250000), wk =   0.0039062
        k(  475) = (  -0.1250000   0.3750000   0.2500000), wk =   0.0039062
        k(  476) = (  -0.1250000   0.3750000   0.3750000), wk =   0.0039062
        k(  477) = (  -0.1250000   0.3750000  -0.5000000), wk =   0.0039062
        k(  478) = (  -0.1250000   0.3750000  -0.3750000), wk =   0.0039062
        k(  479) = (  -0.1250000   0.3750000  -0.2500000), wk =   0.0039062
        k(  480) = (  -0.1250000   0.3750000  -0.1250000), wk =   0.0039062
        k(  481) = (  -0.1250000  -0.5000000   0.0000000), wk =   0.0039062
        k(  482) = (  -0.1250000  -0.5000000   0.1250000), wk =   0.0039062
        k(  483) = (  -0.1250000  -0.5000000   0.2500000), wk =   0.0039062
[...]
     1.0000   1.0000   0.0000   0.0000

          k =-0.2500-0.2887 0.0000 (   458 PWs)   bands (ev):

    -0.1165   7.7024   8.9456  14.1172

     occupation numbers 
     1.0000   1.0000   0.0001   0.0000

          k =-0.2500-0.2887 0.0791 (   455 PWs)   bands (ev):

     0.0149   6.2984  10.4583  14.3772

     occupation numbers 
     1.0000   1.0000   0.0000   0.0000

          k =-0.2500-0.2887 0.1583 (   455 PWs)   bands (ev):

     0.4076   4.6267  12.2987  15.2200

     occupation numbers 
     1.0000   1.0000   0.0000   0.0000

          k =-0.2500-0.2887 0.2374 (   456 PWs)   bands (ev):

     1.0646   3.1780  13.7482  16.0662

     occupation numbers 
     1.0000   1.0000   0.0000   0.0000

          k =-0.2500-0.2887-0.3165 (   452 PWs)   bands (ev):

     1.9851   1.9905  14.9584  14.9663

     occupation numbers 
     1.0000   1.0000   0.0000   0.0000

          k =-0.2500-0.2887-0.2374 (   456 PWs)   bands (ev):

     1.0644   3.1783  13.7487  16.0749

     occupation numbers 
     1.0000   1.0000   0.0000   0.0000

          k =-0.2500-0.2887-0.1583 (   455 PWs)   bands (ev):

     0.4076   4.6268  12.2993  15.2165

     occupation numbers 
     1.0000   1.0000   0.0000   0.0000

          k =-0.2500-0.2887-0.0791 (   455 PWs)   bands (ev):

     0.0148   6.2986  10.4581  14.3762

     occupation numbers 
     1.0000   1.0000   0.0000   0.0000

          k =-0.1250-0.0722 0.0000 (   447 PWs)   bands (ev):

    -2.8248   4.1646   9.2571  21.0551

     occupation numbers 
     1.0000   1.0000   0.0000   0.0000

          k =-0.1250-0.0722 0.0791 (   455 PWs)   bands (ev):

    -2.6902   3.3798  10.3527  21.1989

     occupation numbers 
     1.0000   1.0000   0.0000   0.0000

          k =-0.1250-0.0722 0.1583 (   461 PWs)   bands (ev):

    -2.2857   1.9327  12.7201  21.6208

     occupation numbers 
     1.0000   1.0000   0.0000   0.0000

          k =-0.1250-0.0722 0.2374 (   465 PWs)   bands (ev):

    -1.6120   0.5253  15.6282  22.1336

     occupation numbers 
     1.0000   1.0000   0.0000   0.0000

          k =-0.1250-0.0722-0.3165 (   468 PWs)   bands (ev):

    -0.6732  -0.6679  18.8224  18.8305

     occupation numbers 
     1.0000   1.0000   0.0000   0.0000

          k =-0.1250-0.0722-0.2374 (   465 PWs)   bands (ev):

    -1.6120   0.5254  15.6279  22.1421

     occupation numbers 
     1.0000   1.0000   0.0000   0.0000

          k =-0.1250-0.0722-0.1583 (   461 PWs)   bands (ev):

    -2.2858   1.9327  12.7226  21.6208

     occupation numbers 
     1.0000   1.0000   0.0000   0.0000

          k =-0.1250-0.0722-0.0791 (   455 PWs)   bands (ev):

    -2.6903   3.3798  10.3534  21.1968

     occupation numbers 
     1.0000   1.0000   0.0000   0.0000

          k =-0.1250 0.0722 0.0000 (   447 PWs)   bands (ev):

    -2.8231   4.1558   9.3051  20.9704

     occupation numbers 
     1.0000   1.0000   0.0000   0.0000

          k =-0.1250 0.0722 0.0791 (   455 PWs)   bands (ev):

    -2.6879   3.3796  10.3850  21.0640

     occupation numbers 
     1.0000   1.0000   0.0000   0.0000

          k =-0.1250 0.0722 0.1583 (   461 PWs)   bands (ev):

    -2.2820   1.9395  12.7266  21.2984

     occupation numbers 
     1.0000   1.0000   0.0000   0.0000

          k =-0.1250 0.0722 0.2374 (   465 PWs)   bands (ev):

    -1.6061   0.5339  15.5772  20.9917

     occupation numbers 
     1.0000   1.0000   0.0000   0.0000

          k =-0.1250 0.0722-0.3165 (   468 PWs)   bands (ev):

    -0.6654  -0.6601  18.6028  18.6117

     occupation numbers 
     1.0000   1.0000   0.0000   0.0000

          k =-0.1250 0.0722-0.2374 (   465 PWs)   bands (ev):

    -1.6061   0.5340  15.5766  20.9938

     occupation numbers 
     1.0000   1.0000   0.0000   0.0000

          k =-0.1250 0.0722-0.1583 (   461 PWs)   bands (ev):

    -2.2820   1.9396  12.7263  21.2976

     occupation numbers 
     1.0000   1.0000   0.0000   0.0000

          k =-0.1250 0.0722-0.0791 (   455 PWs)   bands (ev):

    -2.6880   3.3797  10.3852  21.0640

     occupation numbers 
     1.0000   1.0000   0.0000   0.0000

          k =-0.1250 0.2165 0.0000 (   453 PWs)   bands (ev):

    -1.9182   5.3172   9.5574  17.7548

     occupation numbers 
     1.0000   1.0000   0.0000   0.0000

          k =-0.1250 0.2165 0.0791 (   458 PWs)   bands (ev):

    -1.7822   4.4374  10.7164  17.8565

     occupation numbers 
     1.0000   1.0000   0.0000   0.0000

          k =-0.1250 0.2165 0.1583 (   457 PWs)   bands (ev):

    -1.3735   2.9152  13.0541  18.1371

     occupation numbers 
     1.0000   1.0000   0.0000   0.0000

          k =-0.1250 0.2165 0.2374 (   458 PWs)   bands (ev):

    -0.6917   1.4749  15.7235  18.4673

     occupation numbers 
     1.0000   1.0000   0.0000   0.0000

          k =-0.1250 0.2165-0.3165 (   458 PWs)   bands (ev):

     0.2582   0.2636  18.0073  18.0148

     occupation numbers 
     1.0000   1.0000   0.0000   0.0000

          k =-0.1250 0.2165-0.2374 (   458 PWs)   bands (ev):

    -0.6917   1.4749  15.7251  18.4677

     occupation numbers 
     1.0000   1.0000   0.0000   0.0000

          k =-0.1250 0.2165-0.1583 (   457 PWs)   bands (ev):

    -1.3735   2.9152  13.0535  18.1345

     occupation numbers 
     1.0000   1.0000   0.0000   0.0000

          k =-0.1250 0.2165-0.0791 (   458 PWs)   bands (ev):

    -1.7822   4.4374  10.7163  17.8552

     occupation numbers 
     1.0000   1.0000   0.0000   0.0000

          k =-0.1250 0.3608 0.0000 (   458 PWs)   bands (ev):

    -0.1116   7.6061   9.3333  13.9051

     occupation numbers 
     1.0000   1.0000   0.0000   0.0000

          k =-0.1250 0.3608 0.0791 (   455 PWs)   bands (ev):

     0.0244   6.3694  10.6358  14.1368

     occupation numbers 
     1.0000   1.0000   0.0000   0.0000

          k =-0.1250 0.3608 0.1583 (   455 PWs)   bands (ev):

     0.4328   4.7274  12.2846  14.9291

     occupation numbers 
     1.0000   1.0000   0.0000   0.0000

          k =-0.1250 0.3608 0.2374 (   456 PWs)   bands (ev):

     1.1119   3.2705  13.4696  15.2456

     occupation numbers 
     1.0000   1.0000   0.0000   0.0000

          k =-0.1250 0.3608-0.3165 (   452 PWs)   bands (ev):

     2.0566   2.0620  14.4050  14.4118

     occupation numbers 
     1.0000   1.0000   0.0000   0.0000

          k =-0.1250 0.3608-0.2374 (   456 PWs)   bands (ev):

     1.1113   3.2705  13.4719  15.2429

     occupation numbers 
     1.0000   1.0000   0.0000   0.0000

          k =-0.1250 0.3608-0.1583 (   455 PWs)   bands (ev):

     0.4328   4.7272  12.2865  14.9297

     occupation numbers 
     1.0000   1.0000   0.0000   0.0000

          k =-0.1250 0.3608-0.0791 (   455 PWs)   bands (ev):

     0.0244   6.3691  10.6370  14.1323

     occupation numbers 
     1.0000   1.0000   0.0000   0.0000

          k =-0.1250-0.6495 0.0000 (   454 PWs)   bands (ev):

     2.4787   6.5464  10.7624  13.5858

     occupation numbers 
     1.0000   1.0000   0.0000   0.0000

          k =-0.1250-0.6495 0.0791 (   455 PWs)   bands (ev):

     2.6076   6.4235  10.3342  13.7062

     occupation numbers 
     1.0000   1.0000   0.0000   0.0000

          k =-0.1250-0.6495 0.1583 (   456 PWs)   bands (ev):

     2.9860   5.9882   9.8371  12.3345

     occupation numbers 
     1.0000   1.0000   0.0000   0.0000

          k =-0.1250-0.6495 0.2374 (   456 PWs)   bands (ev):

     3.5918   5.2392   9.8338  11.1661

     occupation numbers 
     1.0000   1.0000   0.0000   0.0000

          k =-0.1250-0.6495-0.3165 (   460 PWs)   bands (ev):

     4.3747   4.3790  10.3109  10.3151

     occupation numbers 
     1.0000   1.0000   0.0000   0.0000

          k =-0.1250-0.6495-0.2374 (   456 PWs)   bands (ev):

     3.5925   5.2388   9.8351  11.1653

     occupation numbers 
     1.0000   1.0000   0.0000   0.0000

          k =-0.1250-0.6495-0.1583 (   456 PWs)   bands (ev):

     2.9861   5.9876   9.8391  12.3362

     occupation numbers 
     1.0000   1.0000   0.0000   0.0000

          k =-0.1250-0.6495-0.0791 (   455 PWs)   bands (ev):

     2.6074   6.4228  10.3372  13.7464

     occupation numbers 
     1.0000   1.0000   0.0000   0.0000

          k =-0.1250-0.5052 0.0000 (   454 PWs)   bands (ev):

     2.4669   6.5606  10.8438  13.0136

     occupation numbers 
     1.0000   1.0000   0.0000   0.0000

          k =-0.1250-0.5052 0.0791 (   455 PWs)   bands (ev):

     2.5921   6.4409  10.2833  13.6229

     occupation numbers 
     1.0000   1.0000   0.0000   0.0000

          k =-0.1250-0.5052 0.1583 (   456 PWs)   bands (ev):

     2.9609   5.9934   9.7349  12.5823

     occupation numbers 
     1.0000   1.0000   0.0000   0.0000

          k =-0.1250-0.5052 0.2374 (   456 PWs)   bands (ev):

     3.5564   5.2139   9.8004  11.3377

     occupation numbers 
     1.0000   1.0000   0.0000   0.0000

          k =-0.1250-0.5052-0.3165 (   460 PWs)   bands (ev):

     4.3354   4.3397  10.3793  10.3840

     occupation numbers 
     1.0000   1.0000   0.0000   0.0000

          k =-0.1250-0.5052-0.2374 (   456 PWs)   bands (ev):

     3.5562   5.2143   9.7993  11.3391

     occupation numbers 
     1.0000   1.0000   0.0000   0.0000

          k =-0.1250-0.5052-0.1583 (   456 PWs)   bands (ev):

     2.9608   5.9940   9.7335  12.5830

     occupation numbers 
     1.0000   1.0000   0.0000   0.0000

          k =-0.1250-0.5052-0.0791 (   455 PWs)   bands (ev):

     2.5922   6.4412  10.2811  13.6186

     occupation numbers 
     1.0000   1.0000   0.0000   0.0000

          k =-0.1250-0.3608 0.0000 (   458 PWs)   bands (ev):

    -0.1206   7.6606   9.2348  13.6447

     occupation numbers 
     1.0000   1.0000   0.0000   0.0000

          k =-0.1250-0.3608 0.0791 (   455 PWs)   bands (ev):

     0.0134   6.3535  10.6167  13.9302

     occupation numbers 
     1.0000   1.0000   0.0000   0.0000

          k =-0.1250-0.3608 0.1583 (   455 PWs)   bands (ev):

     0.4138   4.6866  12.2900  14.9217

     occupation numbers 
     1.0000   1.0000   0.0000   0.0000

          k =-0.1250-0.3608 0.2374 (   456 PWs)   bands (ev):

     1.0822   3.2254  13.5066  15.5231

     occupation numbers 
     1.0000   1.0000   0.0000   0.0000

          k =-0.1250-0.3608-0.3165 (   452 PWs)   bands (ev):

     2.0176   2.0230  14.5482  14.5568

     occupation numbers 
     1.0000   1.0000   0.0000   0.0000

          k =-0.1250-0.3608-0.2374 (   456 PWs)   bands (ev):

     1.0822   3.2256  13.5044  15.5187

     occupation numbers 
     1.0000   1.0000   0.0000   0.0000

          k =-0.1250-0.3608-0.1583 (   455 PWs)   bands (ev):

     0.4137   4.6869  12.2873  14.9294

     occupation numbers 
     1.0000   1.0000   0.0000   0.0000

          k =-0.1250-0.3608-0.0791 (   455 PWs)   bands (ev):

     0.0127   6.3535  10.6156  13.9293

     occupation numbers 
     1.0000   1.0000   0.0000   0.0000

          k =-0.1250-0.2165 0.0000 (   453 PWs)   bands (ev):

    -1.9241   5.3451   9.4214  19.0961

     occupation numbers 
     1.0000   1.0000   0.0000   0.0000

          k =-0.1250-0.2165 0.0791 (   458 PWs)   bands (ev):

    -1.7895   4.4347  10.6254  19.2027

     occupation numbers 
     1.0000   1.0000   0.0000   0.0000

          k =-0.1250-0.2165 0.1583 (   457 PWs)   bands (ev):

    -1.3846   2.8924  13.0305  18.5451

     occupation numbers 
     1.0000   1.0000   0.0000   0.0000

          k =-0.1250-0.2165 0.2374 (   458 PWs)   bands (ev):

    -0.7087   1.4482  15.8341  19.1276

     occupation numbers 
     1.0000   1.0000   0.0000   0.0000

          k =-0.1250-0.2165-0.3165 (   458 PWs)   bands (ev):

     0.2348   0.2402  18.5726  18.5759

     occupation numbers 
     1.0000   1.0000   0.0000   0.0000

          k =-0.1250-0.2165-0.2374 (   458 PWs)   bands (ev):

    -0.7089   1.4488  15.8325  19.1313

     occupation numbers 
     1.0000   1.0000   0.0000   0.0000

          k =-0.1250-0.2165-0.1583 (   457 PWs)   bands (ev):

    -1.3847   2.8925  13.0295  18.5541

     occupation numbers 
     1.0000   1.0000   0.0000   0.0000

          k =-0.1250-0.2165-0.0791 (   458 PWs)   bands (ev):

    -1.7891   4.4349  10.6248  19.2149

     occupation numbers 
     1.0000   1.0000   0.0000   0.0000

     the Fermi energy is     8.6944 ev

!    total energy              =      -5.36454291 Ry
     estimated scf accuracy    <       0.00204462 Ry
     smearing contrib. (-TS)   =      -0.00004215 Ry
     internal energy E=F+TS    =      -5.36450076 Ry

     The total energy is F=E-TS. E is the sum of the following terms:
     one-electron contribution =       4.06150486 Ry
     hartree contribution      =       0.00473369 Ry
     xc contribution           =      -3.29493142 Ry
     ewald contribution        =      -6.13580790 Ry

     convergence has been achieved in   1 iterations

     Forces acting on atoms (cartesian axes, Ry/au):

     atom    1 type  1   force =     0.02775569    0.01295016    0.00019172
     atom    2 type  1   force =    -0.02775569   -0.01295016   -0.00019172
     The non-local contrib.  to forces
     atom    1 type  1   force =     0.03750333    0.01629208    0.00041865
     atom    2 type  1   force =    -0.03748403   -0.01630771   -0.00041677
     The ionic contribution  to forces
     atom    1 type  1   force =     0.01966769    0.00957889    0.00090509
     atom    2 type  1   force =    -0.01966769   -0.00957889   -0.00090509
     The local contribution  to forces
     atom    1 type  1   force =    -0.02808937   -0.01225986   -0.00150333
     atom    2 type  1   force =     0.02808269    0.01226806    0.00149980
     The core correction contribution to forces
     atom    1 type  1   force =    -0.00162696   -0.00078165    0.00013488
     atom    2 type  1   force =     0.00162593    0.00078245   -0.00013482
     The Hubbard contrib.    to forces
     atom    1 type  1   force =     0.00000000    0.00000000    0.00000000
     atom    2 type  1   force =     0.00000000    0.00000000    0.00000000
     The SCF correction term to forces
     atom    1 type  1   force =     0.00030682    0.00011735    0.00023565
     atom    2 type  1   force =    -0.00030676   -0.00011743   -0.00023562

     Total force =     0.043316     Total SCF correction =     0.000572


     Computing stress (Cartesian axis) and pressure

          total   stress  (Ry/bohr**3)                   (kbar)     P=       12.02
   0.00005543   0.00017934   0.00000100            8.15       26.38        0.15
   0.00017934  -0.00007524   0.00000058           26.38      -11.07        0.09
   0.00000100   0.00000058   0.00026496            0.15        0.09       38.98

     kinetic stress (kbar)   2795.14     21.32      0.13
                               21.32   2786.06      0.05
                                0.13      0.05   2809.36

     local   stress (kbar)    283.04    -87.22     -0.12
                              -87.22    322.69     -0.03
                               -0.12     -0.03    131.97

     nonloc. stress (kbar)    887.58     15.92      0.03
                               15.92    880.14     -0.00
                                0.03     -0.00    919.21

     hartree stress (kbar)      1.29      1.17     -0.00
                                1.17      0.81     -0.00
                               -0.00     -0.00      4.44

     exc-cor stress (kbar)    118.81      1.34      0.00
                                1.34    118.24     -0.00
                                0.00     -0.00    121.01

     corecor stress (kbar)  -1222.50     -3.94     -0.03
                               -3.94  -1220.79      0.01
                               -0.03      0.01  -1228.77

     ewald   stress (kbar)  -2855.20     77.78      0.13
                               77.78  -2898.23      0.06
                                0.13      0.06  -2718.23

     hubbard stress (kbar)      0.00      0.00      0.00
                                0.00      0.00      0.00
                                0.00      0.00      0.00

     DFT-D   stress (kbar)      0.00      0.00      0.00
                                0.00      0.00      0.00
                                0.00      0.00      0.00

     XDM     stress (kbar)      0.00      0.00      0.00
                                0.00      0.00      0.00
                                0.00      0.00      0.00

     dft-nl  stress (kbar)      0.00      0.00      0.00
                                0.00      0.00      0.00
                                0.00      0.00      0.00

     TS-vdW  stress (kbar)      0.00      0.00      0.00
                                0.00      0.00      0.00
                                0.00      0.00      0.00



     Writing output data file temp/Be.save/

     init_run     :      3.64s CPU      3.66s WALL (       1 calls)
     electrons    :     18.31s CPU     18.49s WALL (       1 calls)
     forces       :      0.18s CPU      0.19s WALL (       1 calls)
     stress       :      0.68s CPU      0.69s WALL (       1 calls)

     Called by init_run:
     wfcinit      :      3.50s CPU      3.52s WALL (       1 calls)
     wfcinit:atom :      0.04s CPU      0.04s WALL (     512 calls)
     wfcinit:wfcr :      3.32s CPU      3.34s WALL (     512 calls)
     potinit      :      0.01s CPU      0.01s WALL (       1 calls)
     hinit0       :      0.10s CPU      0.10s WALL (       1 calls)

     Called by electrons:
     c_bands      :     16.64s CPU     16.79s WALL (       2 calls)
     sum_band     :      1.66s CPU      1.68s WALL (       2 calls)
     v_of_rho     :      0.01s CPU      0.01s WALL (       2 calls)
     v_h          :      0.00s CPU      0.00s WALL (       2 calls)
     v_xc         :      0.02s CPU      0.02s WALL (       4 calls)
     newd         :      0.01s CPU      0.01s WALL (       2 calls)
     mix_rho      :      0.00s CPU      0.00s WALL (       2 calls)

     Called by c_bands:
     init_us_2    :      0.26s CPU      0.27s WALL (    3584 calls)
     cegterg      :     16.43s CPU     16.59s WALL (    1024 calls)

     Called by sum_band:
     sum_band:wei :      0.00s CPU      0.00s WALL (       2 calls)
     sum_band:loo :      1.65s CPU      1.68s WALL (       2 calls)
     sum_band:buf :      0.00s CPU      0.00s WALL (    1024 calls)
     sum_band:ini :      0.07s CPU      0.07s WALL (    1024 calls)
     sum_band:cal :      0.06s CPU      0.06s WALL (    1024 calls)
     sum_band:bec :      0.00s CPU      0.00s WALL (    1024 calls)
     addusdens    :      0.00s CPU      0.00s WALL (       2 calls)
     addusd:skk   :      0.00s CPU      0.00s WALL (       2 calls)
     addusd:dgemm :      0.00s CPU      0.00s WALL (       2 calls)
     addusd:qvan2 :      0.00s CPU      0.00s WALL (       2 calls)

     Called by *egterg:
     cdiaghg      :      0.21s CPU      0.21s WALL (    6177 calls)
     cegterg:over :      0.21s CPU      0.21s WALL (    5665 calls)
     cegterg:upda :      0.10s CPU      0.10s WALL (    5665 calls)
     cegterg:last :      0.22s CPU      0.22s WALL (    4469 calls)
     h_psi        :     18.58s CPU     18.75s WALL (    7201 calls)
     s_psi        :      0.21s CPU      0.21s WALL (    7201 calls)
     g_psi        :      0.03s CPU      0.03s WALL (    5665 calls)

     Called by h_psi:
     h_psi:calbec :      0.36s CPU      0.37s WALL (    7201 calls)
     vloc_psi     :     17.96s CPU     18.12s WALL (    7201 calls)
     add_vuspsi   :      0.22s CPU      0.22s WALL (    7201 calls)

     General routines
     calbec       :      0.52s CPU      0.54s WALL (   10785 calls)
     fft          :      0.03s CPU      0.03s WALL (      48 calls)
     ffts         :      0.00s CPU      0.00s WALL (       2 calls)
     fftw         :     18.92s CPU     19.12s WALL (   51626 calls)

     Parallel routines

     PWSCF        :     23.01s CPU     23.26s WALL


   This run was terminated on:  16:24:27   7Sep2021            

=------------------------------------------------------------------------------=
   JOB DONE.
=------------------------------------------------------------------------------=
