
     Program PWSCF v.6.6 starts on  7Sep2021 at 16:24:53 

     This program is part of the open-source Quantum ESPRESSO suite
     for quantum simulation of materials; please cite
         "P. Giannozzi et al., J. Phys.:Condens. Matter 21 395502 (2009);
         "P. Giannozzi et al., J. Phys.:Condens. Matter 29 465901 (2017);
          URL http://www.quantum-espresso.org", 
     in publications or presentations arising from this work. More details at
     http://www.quantum-espresso.org/quote

     Parallel version (MPI), running on     1 processors

     MPI processes distributed on     1 nodes
     Fft bands division:     nmany     =       1
     Reading input from Be_snapshot4.pw.scf.in
Warning: card &CELL ignored
Warning: card / ignored

     Current dimensions of program PWSCF are:
     Max number of different atomic species (ntypx) = 10
     Max number of k-points (npk) =  40000
     Max angular momentum in pseudopotentials (lmaxx) =  3

     Subspace diagonalization in iterative solution of the eigenvalue problem:
     a serial algorithm will be used


     G-vector sticks info
     --------------------
     sticks:   dense  smooth     PW     G-vecs:    dense   smooth      PW
     Sum         199     199     85                 3669     3669     881



     bravais-lattice index     =            0
     lattice parameter (alat)  =       4.2705  a.u.
     unit-cell volume          =     106.5443 (a.u.)^3
     number of atoms/cell      =            2
     number of atomic types    =            1
     number of electrons       =         4.00
     number of Kohn-Sham states=            4
     kinetic-energy cutoff     =      40.0000  Ry
     charge density cutoff     =     160.0000  Ry
     convergence threshold     =      2.0E-02
     mixing beta               =       0.1000
     number of iterations used =            8  plain     mixing
     Exchange-correlation= PBE
                           (   1   4   3   4   0   0   0)

     celldm(1)=   4.270452  celldm(2)=   0.000000  celldm(3)=   0.000000
     celldm(4)=   0.000000  celldm(5)=   0.000000  celldm(6)=   0.000000

     crystal axes: (cart. coord. in units of alat)
               a(1) = (   1.000000   0.000000   0.000000 )  
               a(2) = (  -0.500000   0.866025   0.000000 )  
               a(3) = (   0.000000   0.000000   1.579714 )  

     reciprocal axes: (cart. coord. in units 2 pi/alat)
               b(1) = (  1.000000  0.577351 -0.000000 )  
               b(2) = (  0.000000  1.154701  0.000000 )  
               b(3) = (  0.000000 -0.000000  0.633026 )  


     PseudoPot. # 1 for Be read from file:
     /home/fiedlerl/tools/pslibrary/pbe/PSEUDOPOTENTIALS/Be.pbe-n-rrkjus_psl.1.0.0.UPF
     MD5 check sum: 734a25375992c446e1da9bf329ae4716
     Pseudo is Ultrasoft + core correction, Zval =  2.0
     Generated using "atomic" code by A. Dal Corso v.6.6
     Using radial grid of 1041 points,  4 beta functions with: 
                l(1) =   0
                l(2) =   0
                l(3) =   1
                l(4) =   1
     Q(r) pseudized with 0 coefficients 


     atomic species   valence    mass     pseudopotential
        Be             2.00     9.01218     Be( 1.00)

     No symmetry found


                                    s                        frac. trans.

      isym =  1     identity                                     

 cryst.   s( 1) = (     1          0          0      )
                  (     0          1          0      )
                  (     0          0          1      )

 cart.    s( 1) = (  1.0000000  0.0000000  0.0000000 )
                  (  0.0000000  1.0000000  0.0000000 )
                  (  0.0000000  0.0000000  1.0000000 )


   Cartesian axes

     site n.     atom                  positions (alat units)
         1           Be  tau(   1) = (   0.7012016   0.1298450   1.1861659  )
         2           Be  tau(   2) = (  -0.2012016   0.7361803   0.3935478  )

   Crystallographic axes

     site n.     atom                  positions (cryst. coord.)
         1           Be  tau(   1) = (  0.7761677  0.1499322  0.7508738  )
         2           Be  tau(   2) = (  0.2238325  0.8500682  0.2491260  )

     number of k points=   512  Fermi-Dirac smearing, width (Ry)=  0.0019
                       cart. coord. in units 2pi/alat
        k(    1) = (   0.0000000   0.0000000   0.0000000), wk =   0.0039062
        k(    2) = (   0.0000000   0.0000000   0.0791282), wk =   0.0039062
        k(    3) = (   0.0000000   0.0000000   0.1582565), wk =   0.0039062
        k(    4) = (   0.0000000   0.0000000   0.2373847), wk =   0.0039062
        k(    5) = (   0.0000000   0.0000000  -0.3165130), wk =   0.0039062
        k(    6) = (   0.0000000   0.0000000  -0.2373847), wk =   0.0039062
        k(    7) = (   0.0000000   0.0000000  -0.1582565), wk =   0.0039062
        k(    8) = (   0.0000000   0.0000000  -0.0791282), wk =   0.0039062
        k(    9) = (   0.0000000   0.1443376   0.0000000), wk =   0.0039062
        k(   10) = (   0.0000000   0.1443376   0.0791282), wk =   0.0039062
        k(   11) = (   0.0000000   0.1443376   0.1582565), wk =   0.0039062
        k(   12) = (   0.0000000   0.1443376   0.2373847), wk =   0.0039062
        k(   13) = (   0.0000000   0.1443376  -0.3165130), wk =   0.0039062
        k(   14) = (   0.0000000   0.1443376  -0.2373847), wk =   0.0039062
        k(   15) = (   0.0000000   0.1443376  -0.1582565), wk =   0.0039062
        k(   16) = (   0.0000000   0.1443376  -0.0791282), wk =   0.0039062
        k(   17) = (   0.0000000   0.2886753   0.0000000), wk =   0.0039062
        k(   18) = (   0.0000000   0.2886753   0.0791282), wk =   0.0039062
        k(   19) = (   0.0000000   0.2886753   0.1582565), wk =   0.0039062
        k(   20) = (   0.0000000   0.2886753   0.2373847), wk =   0.0039062
        k(   21) = (   0.0000000   0.2886753  -0.3165130), wk =   0.0039062
        k(   22) = (   0.0000000   0.2886753  -0.2373847), wk =   0.0039062
        k(   23) = (   0.0000000   0.2886753  -0.1582565), wk =   0.0039062
        k(   24) = (   0.0000000   0.2886753  -0.0791282), wk =   0.0039062
        k(   25) = (   0.0000000   0.4330129   0.0000000), wk =   0.0039062
        k(   26) = (   0.0000000   0.4330129   0.0791282), wk =   0.0039062
        k(   27) = (   0.0000000   0.4330129   0.1582565), wk =   0.0039062
        k(   28) = (   0.0000000   0.4330129   0.2373847), wk =   0.0039062
        k(   29) = (   0.0000000   0.4330129  -0.3165130), wk =   0.0039062
        k(   30) = (   0.0000000   0.4330129  -0.2373847), wk =   0.0039062
        k(   31) = (   0.0000000   0.4330129  -0.1582565), wk =   0.0039062
        k(   32) = (   0.0000000   0.4330129  -0.0791282), wk =   0.0039062
        k(   33) = (   0.0000000  -0.5773505   0.0000000), wk =   0.0039062
        k(   34) = (   0.0000000  -0.5773505   0.0791282), wk =   0.0039062
        k(   35) = (   0.0000000  -0.5773505   0.1582565), wk =   0.0039062
        k(   36) = (   0.0000000  -0.5773505   0.2373847), wk =   0.0039062
        k(   37) = (   0.0000000  -0.5773505  -0.3165130), wk =   0.0039062
        k(   38) = (   0.0000000  -0.5773505  -0.2373847), wk =   0.0039062
        k(   39) = (   0.0000000  -0.5773505  -0.1582565), wk =   0.0039062
        k(   40) = (   0.0000000  -0.5773505  -0.0791282), wk =   0.0039062
        k(   41) = (   0.0000000  -0.4330129   0.0000000), wk =   0.0039062
        k(   42) = (   0.0000000  -0.4330129   0.0791282), wk =   0.0039062
        k(   43) = (   0.0000000  -0.4330129   0.1582565), wk =   0.0039062
        k(   44) = (   0.0000000  -0.4330129   0.2373847), wk =   0.0039062
        k(   45) = (   0.0000000  -0.4330129  -0.3165130), wk =   0.0039062
        k(   46) = (   0.0000000  -0.4330129  -0.2373847), wk =   0.0039062
        k(   47) = (   0.0000000  -0.4330129  -0.1582565), wk =   0.0039062
        k(   48) = (   0.0000000  -0.4330129  -0.0791282), wk =   0.0039062
        k(   49) = (   0.0000000  -0.2886753   0.0000000), wk =   0.0039062
        k(   50) = (   0.0000000  -0.2886753   0.0791282), wk =   0.0039062
        k(   51) = (   0.0000000  -0.2886753   0.1582565), wk =   0.0039062
        k(   52) = (   0.0000000  -0.2886753   0.2373847), wk =   0.0039062
        k(   53) = (   0.0000000  -0.2886753  -0.3165130), wk =   0.0039062
        k(   54) = (   0.0000000  -0.2886753  -0.2373847), wk =   0.0039062
        k(   55) = (   0.0000000  -0.2886753  -0.1582565), wk =   0.0039062
        k(   56) = (   0.0000000  -0.2886753  -0.0791282), wk =   0.0039062
        k(   57) = (   0.0000000  -0.1443376   0.0000000), wk =   0.0039062
        k(   58) = (   0.0000000  -0.1443376   0.0791282), wk =   0.0039062
        k(   59) = (   0.0000000  -0.1443376   0.1582565), wk =   0.0039062
        k(   60) = (   0.0000000  -0.1443376   0.2373847), wk =   0.0039062
        k(   61) = (   0.0000000  -0.1443376  -0.3165130), wk =   0.0039062
        k(   62) = (   0.0000000  -0.1443376  -0.2373847), wk =   0.0039062
        k(   63) = (   0.0000000  -0.1443376  -0.1582565), wk =   0.0039062
        k(   64) = (   0.0000000  -0.1443376  -0.0791282), wk =   0.0039062
        k(   65) = (   0.1250000   0.0721688   0.0000000), wk =   0.0039062
        k(   66) = (   0.1250000   0.0721688   0.0791282), wk =   0.0039062
        k(   67) = (   0.1250000   0.0721688   0.1582565), wk =   0.0039062
        k(   68) = (   0.1250000   0.0721688   0.2373847), wk =   0.0039062
        k(   69) = (   0.1250000   0.0721688  -0.3165130), wk =   0.0039062
        k(   70) = (   0.1250000   0.0721688  -0.2373847), wk =   0.0039062
        k(   71) = (   0.1250000   0.0721688  -0.1582565), wk =   0.0039062
        k(   72) = (   0.1250000   0.0721688  -0.0791282), wk =   0.0039062
        k(   73) = (   0.1250000   0.2165065   0.0000000), wk =   0.0039062
        k(   74) = (   0.1250000   0.2165065   0.0791282), wk =   0.0039062
        k(   75) = (   0.1250000   0.2165065   0.1582565), wk =   0.0039062
        k(   76) = (   0.1250000   0.2165065   0.2373847), wk =   0.0039062
        k(   77) = (   0.1250000   0.2165065  -0.3165130), wk =   0.0039062
        k(   78) = (   0.1250000   0.2165065  -0.2373847), wk =   0.0039062
        k(   79) = (   0.1250000   0.2165065  -0.1582565), wk =   0.0039062
        k(   80) = (   0.1250000   0.2165065  -0.0791282), wk =   0.0039062
        k(   81) = (   0.1250000   0.3608441   0.0000000), wk =   0.0039062
        k(   82) = (   0.1250000   0.3608441   0.0791282), wk =   0.0039062
        k(   83) = (   0.1250000   0.3608441   0.1582565), wk =   0.0039062
        k(   84) = (   0.1250000   0.3608441   0.2373847), wk =   0.0039062
        k(   85) = (   0.1250000   0.3608441  -0.3165130), wk =   0.0039062
        k(   86) = (   0.1250000   0.3608441  -0.2373847), wk =   0.0039062
        k(   87) = (   0.1250000   0.3608441  -0.1582565), wk =   0.0039062
        k(   88) = (   0.1250000   0.3608441  -0.0791282), wk =   0.0039062
        k(   89) = (   0.1250000   0.5051817   0.0000000), wk =   0.0039062
        k(   90) = (   0.1250000   0.5051817   0.0791282), wk =   0.0039062
        k(   91) = (   0.1250000   0.5051817   0.1582565), wk =   0.0039062
        k(   92) = (   0.1250000   0.5051817   0.2373847), wk =   0.0039062
        k(   93) = (   0.1250000   0.5051817  -0.3165130), wk =   0.0039062
        k(   94) = (   0.1250000   0.5051817  -0.2373847), wk =   0.0039062
        k(   95) = (   0.1250000   0.5051817  -0.1582565), wk =   0.0039062
        k(   96) = (   0.1250000   0.5051817  -0.0791282), wk =   0.0039062
        k(   97) = (   0.1250000  -0.5051817   0.0000000), wk =   0.0039062
        k(   98) = (   0.1250000  -0.5051817   0.0791282), wk =   0.0039062
        k(   99) = (   0.1250000  -0.5051817   0.1582565), wk =   0.0039062
        k(  100) = (   0.1250000  -0.5051817   0.2373847), wk =   0.0039062
        k(  101) = (   0.1250000  -0.5051817  -0.3165130), wk =   0.0039062
        k(  102) = (   0.1250000  -0.5051817  -0.2373847), wk =   0.0039062
        k(  103) = (   0.1250000  -0.5051817  -0.1582565), wk =   0.0039062
        k(  104) = (   0.1250000  -0.5051817  -0.0791282), wk =   0.0039062
        k(  105) = (   0.1250000  -0.3608441   0.0000000), wk =   0.0039062
        k(  106) = (   0.1250000  -0.3608441   0.0791282), wk =   0.0039062
        k(  107) = (   0.1250000  -0.3608441   0.1582565), wk =   0.0039062
        k(  108) = (   0.1250000  -0.3608441   0.2373847), wk =   0.0039062
        k(  109) = (   0.1250000  -0.3608441  -0.3165130), wk =   0.0039062
        k(  110) = (   0.1250000  -0.3608441  -0.2373847), wk =   0.0039062
        k(  111) = (   0.1250000  -0.3608441  -0.1582565), wk =   0.0039062
        k(  112) = (   0.1250000  -0.3608441  -0.0791282), wk =   0.0039062
        k(  113) = (   0.1250000  -0.2165065   0.0000000), wk =   0.0039062
        k(  114) = (   0.1250000  -0.2165065   0.0791282), wk =   0.0039062
        k(  115) = (   0.1250000  -0.2165065   0.1582565), wk =   0.0039062
        k(  116) = (   0.1250000  -0.2165065   0.2373847), wk =   0.0039062
        k(  117) = (   0.1250000  -0.2165065  -0.3165130), wk =   0.0039062
        k(  118) = (   0.1250000  -0.2165065  -0.2373847), wk =   0.0039062
        k(  119) = (   0.1250000  -0.2165065  -0.1582565), wk =   0.0039062
        k(  120) = (   0.1250000  -0.2165065  -0.0791282), wk =   0.0039062
        k(  121) = (   0.1250000  -0.0721688   0.0000000), wk =   0.0039062
        k(  122) = (   0.1250000  -0.0721688   0.0791282), wk =   0.0039062
        k(  123) = (   0.1250000  -0.0721688   0.1582565), wk =   0.0039062
        k(  124) = (   0.1250000  -0.0721688   0.2373847), wk =   0.0039062
        k(  125) = (   0.1250000  -0.0721688  -0.3165130), wk =   0.0039062
        k(  126) = (   0.1250000  -0.0721688  -0.2373847), wk =   0.0039062
        k(  127) = (   0.1250000  -0.0721688  -0.1582565), wk =   0.0039062
        k(  128) = (   0.1250000  -0.0721688  -0.0791282), wk =   0.0039062
        k(  129) = (   0.2500000   0.1443376   0.0000000), wk =   0.0039062
        k(  130) = (   0.2500000   0.1443376   0.0791282), wk =   0.0039062
        k(  131) = (   0.2500000   0.1443376   0.1582565), wk =   0.0039062
        k(  132) = (   0.2500000   0.1443376   0.2373847), wk =   0.0039062
        k(  133) = (   0.2500000   0.1443376  -0.3165130), wk =   0.0039062
        k(  134) = (   0.2500000   0.1443376  -0.2373847), wk =   0.0039062
        k(  135) = (   0.2500000   0.1443376  -0.1582565), wk =   0.0039062
        k(  136) = (   0.2500000   0.1443376  -0.0791282), wk =   0.0039062
        k(  137) = (   0.2500000   0.2886753   0.0000000), wk =   0.0039062
        k(  138) = (   0.2500000   0.2886753   0.0791282), wk =   0.0039062
        k(  139) = (   0.2500000   0.2886753   0.1582565), wk =   0.0039062
        k(  140) = (   0.2500000   0.2886753   0.2373847), wk =   0.0039062
        k(  141) = (   0.2500000   0.2886753  -0.3165130), wk =   0.0039062
        k(  142) = (   0.2500000   0.2886753  -0.2373847), wk =   0.0039062
        k(  143) = (   0.2500000   0.2886753  -0.1582565), wk =   0.0039062
        k(  144) = (   0.2500000   0.2886753  -0.0791282), wk =   0.0039062
        k(  145) = (   0.2500000   0.4330129   0.0000000), wk =   0.0039062
        k(  146) = (   0.2500000   0.4330129   0.0791282), wk =   0.0039062
        k(  147) = (   0.2500000   0.4330129   0.1582565), wk =   0.0039062
        k(  148) = (   0.2500000   0.4330129   0.2373847), wk =   0.0039062
        k(  149) = (   0.2500000   0.4330129  -0.3165130), wk =   0.0039062
        k(  150) = (   0.2500000   0.4330129  -0.2373847), wk =   0.0039062
        k(  151) = (   0.2500000   0.4330129  -0.1582565), wk =   0.0039062
        k(  152) = (   0.2500000   0.4330129  -0.0791282), wk =   0.0039062
        k(  153) = (   0.2500000   0.5773505   0.0000000), wk =   0.0039062
        k(  154) = (   0.2500000   0.5773505   0.0791282), wk =   0.0039062
        k(  155) = (   0.2500000   0.5773505   0.1582565), wk =   0.0039062
        k(  156) = (   0.2500000   0.5773505   0.2373847), wk =   0.0039062
        k(  157) = (   0.2500000   0.5773505  -0.3165130), wk =   0.0039062
        k(  158) = (   0.2500000   0.5773505  -0.2373847), wk =   0.0039062
        k(  159) = (   0.2500000   0.5773505  -0.1582565), wk =   0.0039062
        k(  160) = (   0.2500000   0.5773505  -0.0791282), wk =   0.0039062
        k(  161) = (   0.2500000  -0.4330129   0.0000000), wk =   0.0039062
        k(  162) = (   0.2500000  -0.4330129   0.0791282), wk =   0.0039062
        k(  163) = (   0.2500000  -0.4330129   0.1582565), wk =   0.0039062
        k(  164) = (   0.2500000  -0.4330129   0.2373847), wk =   0.0039062
        k(  165) = (   0.2500000  -0.4330129  -0.3165130), wk =   0.0039062
        k(  166) = (   0.2500000  -0.4330129  -0.2373847), wk =   0.0039062
        k(  167) = (   0.2500000  -0.4330129  -0.1582565), wk =   0.0039062
        k(  168) = (   0.2500000  -0.4330129  -0.0791282), wk =   0.0039062
        k(  169) = (   0.2500000  -0.2886753   0.0000000), wk =   0.0039062
        k(  170) = (   0.2500000  -0.2886753   0.0791282), wk =   0.0039062
        k(  171) = (   0.2500000  -0.2886753   0.1582565), wk =   0.0039062
        k(  172) = (   0.2500000  -0.2886753   0.2373847), wk =   0.0039062
        k(  173) = (   0.2500000  -0.2886753  -0.3165130), wk =   0.0039062
        k(  174) = (   0.2500000  -0.2886753  -0.2373847), wk =   0.0039062
        k(  175) = (   0.2500000  -0.2886753  -0.1582565), wk =   0.0039062
        k(  176) = (   0.2500000  -0.2886753  -0.0791282), wk =   0.0039062
        k(  177) = (   0.2500000  -0.1443376   0.0000000), wk =   0.0039062
        k(  178) = (   0.2500000  -0.1443376   0.0791282), wk =   0.0039062
        k(  179) = (   0.2500000  -0.1443376   0.1582565), wk =   0.0039062
        k(  180) = (   0.2500000  -0.1443376   0.2373847), wk =   0.0039062
        k(  181) = (   0.2500000  -0.1443376  -0.3165130), wk =   0.0039062
        k(  182) = (   0.2500000  -0.1443376  -0.2373847), wk =   0.0039062
        k(  183) = (   0.2500000  -0.1443376  -0.1582565), wk =   0.0039062
        k(  184) = (   0.2500000  -0.1443376  -0.0791282), wk =   0.0039062
        k(  185) = (   0.2500000   0.0000000   0.0000000), wk =   0.0039062
        k(  186) = (   0.2500000   0.0000000   0.0791282), wk =   0.0039062
        k(  187) = (   0.2500000   0.0000000   0.1582565), wk =   0.0039062
        k(  188) = (   0.2500000   0.0000000   0.2373847), wk =   0.0039062
        k(  189) = (   0.2500000   0.0000000  -0.3165130), wk =   0.0039062
        k(  190) = (   0.2500000   0.0000000  -0.2373847), wk =   0.0039062
        k(  191) = (   0.2500000   0.0000000  -0.1582565), wk =   0.0039062
        k(  192) = (   0.2500000   0.0000000  -0.0791282), wk =   0.0039062
        k(  193) = (   0.3750000   0.2165065   0.0000000), wk =   0.0039062
        k(  194) = (   0.3750000   0.2165065   0.0791282), wk =   0.0039062
        k(  195) = (   0.3750000   0.2165065   0.1582565), wk =   0.0039062
        k(  196) = (   0.3750000   0.2165065   0.2373847), wk =   0.0039062
        k(  197) = (   0.3750000   0.2165065  -0.3165130), wk =   0.0039062
        k(  198) = (   0.3750000   0.2165065  -0.2373847), wk =   0.0039062
        k(  199) = (   0.3750000   0.2165065  -0.1582565), wk =   0.0039062
        k(  200) = (   0.3750000   0.2165065  -0.0791282), wk =   0.0039062
        k(  201) = (   0.3750000   0.3608441   0.0000000), wk =   0.0039062
        k(  202) = (   0.3750000   0.3608441   0.0791282), wk =   0.0039062
        k(  203) = (   0.3750000   0.3608441   0.1582565), wk =   0.0039062
        k(  204) = (   0.3750000   0.3608441   0.2373847), wk =   0.0039062
        k(  205) = (   0.3750000   0.3608441  -0.3165130), wk =   0.0039062
        k(  206) = (   0.3750000   0.3608441  -0.2373847), wk =   0.0039062
        k(  207) = (   0.3750000   0.3608441  -0.1582565), wk =   0.0039062
        k(  208) = (   0.3750000   0.3608441  -0.0791282), wk =   0.0039062
        k(  209) = (   0.3750000   0.5051817   0.0000000), wk =   0.0039062
        k(  210) = (   0.3750000   0.5051817   0.0791282), wk =   0.0039062
        k(  211) = (   0.3750000   0.5051817   0.1582565), wk =   0.0039062
        k(  212) = (   0.3750000   0.5051817   0.2373847), wk =   0.0039062
        k(  213) = (   0.3750000   0.5051817  -0.3165130), wk =   0.0039062
        k(  214) = (   0.3750000   0.5051817  -0.2373847), wk =   0.0039062
        k(  215) = (   0.3750000   0.5051817  -0.1582565), wk =   0.0039062
        k(  216) = (   0.3750000   0.5051817  -0.0791282), wk =   0.0039062
        k(  217) = (   0.3750000   0.6495194   0.0000000), wk =   0.0039062
        k(  218) = (   0.3750000   0.6495194   0.0791282), wk =   0.0039062
        k(  219) = (   0.3750000   0.6495194   0.1582565), wk =   0.0039062
        k(  220) = (   0.3750000   0.6495194   0.2373847), wk =   0.0039062
        k(  221) = (   0.3750000   0.6495194  -0.3165130), wk =   0.0039062
        k(  222) = (   0.3750000   0.6495194  -0.2373847), wk =   0.0039062
        k(  223) = (   0.3750000   0.6495194  -0.1582565), wk =   0.0039062
        k(  224) = (   0.3750000   0.6495194  -0.0791282), wk =   0.0039062
        k(  225) = (   0.3750000  -0.3608441   0.0000000), wk =   0.0039062
        k(  226) = (   0.3750000  -0.3608441   0.0791282), wk =   0.0039062
        k(  227) = (   0.3750000  -0.3608441   0.1582565), wk =   0.0039062
        k(  228) = (   0.3750000  -0.3608441   0.2373847), wk =   0.0039062
        k(  229) = (   0.3750000  -0.3608441  -0.3165130), wk =   0.0039062
        k(  230) = (   0.3750000  -0.3608441  -0.2373847), wk =   0.0039062
        k(  231) = (   0.3750000  -0.3608441  -0.1582565), wk =   0.0039062
        k(  232) = (   0.3750000  -0.3608441  -0.0791282), wk =   0.0039062
        k(  233) = (   0.3750000  -0.2165065   0.0000000), wk =   0.0039062
        k(  234) = (   0.3750000  -0.2165065   0.0791282), wk =   0.0039062
        k(  235) = (   0.3750000  -0.2165065   0.1582565), wk =   0.0039062
        k(  236) = (   0.3750000  -0.2165065   0.2373847), wk =   0.0039062
        k(  237) = (   0.3750000  -0.2165065  -0.3165130), wk =   0.0039062
        k(  238) = (   0.3750000  -0.2165065  -0.2373847), wk =   0.0039062
        k(  239) = (   0.3750000  -0.2165065  -0.1582565), wk =   0.0039062
        k(  240) = (   0.3750000  -0.2165065  -0.0791282), wk =   0.0039062
        k(  241) = (   0.3750000  -0.0721688   0.0000000), wk =   0.0039062
        k(  242) = (   0.3750000  -0.0721688   0.0791282), wk =   0.0039062
        k(  243) = (   0.3750000  -0.0721688   0.1582565), wk =   0.0039062
        k(  244) = (   0.3750000  -0.0721688   0.2373847), wk =   0.0039062
        k(  245) = (   0.3750000  -0.0721688  -0.3165130), wk =   0.0039062
        k(  246) = (   0.3750000  -0.0721688  -0.2373847), wk =   0.0039062
        k(  247) = (   0.3750000  -0.0721688  -0.1582565), wk =   0.0039062
        k(  248) = (   0.3750000  -0.0721688  -0.0791282), wk =   0.0039062
        k(  249) = (   0.3750000   0.0721688   0.0000000), wk =   0.0039062
        k(  250) = (   0.3750000   0.0721688   0.0791282), wk =   0.0039062
        k(  251) = (   0.3750000   0.0721688   0.1582565), wk =   0.0039062
        k(  252) = (   0.3750000   0.0721688   0.2373847), wk =   0.0039062
        k(  253) = (   0.3750000   0.0721688  -0.3165130), wk =   0.0039062
        k(  254) = (   0.3750000   0.0721688  -0.2373847), wk =   0.0039062
        k(  255) = (   0.3750000   0.0721688  -0.1582565), wk =   0.0039062
        k(  256) = (   0.3750000   0.0721688  -0.0791282), wk =   0.0039062
        k(  257) = (  -0.5000000  -0.2886753   0.0000000), wk =   0.0039062
        k(  258) = (  -0.5000000  -0.2886753   0.0791282), wk =   0.0039062
        k(  259) = (  -0.5000000  -0.2886753   0.1582565), wk =   0.0039062
        k(  260) = (  -0.5000000  -0.2886753   0.2373847), wk =   0.0039062
        k(  261) = (  -0.5000000  -0.2886753  -0.3165130), wk =   0.0039062
        k(  262) = (  -0.5000000  -0.2886753  -0.2373847), wk =   0.0039062
        k(  263) = (  -0.5000000  -0.2886753  -0.1582565), wk =   0.0039062
        k(  264) = (  -0.5000000  -0.2886753  -0.0791282), wk =   0.0039062
        k(  265) = (  -0.5000000  -0.1443376   0.0000000), wk =   0.0039062
        k(  266) = (  -0.5000000  -0.1443376   0.0791282), wk =   0.0039062
        k(  267) = (  -0.5000000  -0.1443376   0.1582565), wk =   0.0039062
        k(  268) = (  -0.5000000  -0.1443376   0.2373847), wk =   0.0039062
        k(  269) = (  -0.5000000  -0.1443376  -0.3165130), wk =   0.0039062
        k(  270) = (  -0.5000000  -0.1443376  -0.2373847), wk =   0.0039062
        k(  271) = (  -0.5000000  -0.1443376  -0.1582565), wk =   0.0039062
        k(  272) = (  -0.5000000  -0.1443376  -0.0791282), wk =   0.0039062
        k(  273) = (  -0.5000000   0.0000000   0.0000000), wk =   0.0039062
        k(  274) = (  -0.5000000   0.0000000   0.0791282), wk =   0.0039062
        k(  275) = (  -0.5000000   0.0000000   0.1582565), wk =   0.0039062
        k(  276) = (  -0.5000000   0.0000000   0.2373847), wk =   0.0039062
        k(  277) = (  -0.5000000   0.0000000  -0.3165130), wk =   0.0039062
        k(  278) = (  -0.5000000   0.0000000  -0.2373847), wk =   0.0039062
        k(  279) = (  -0.5000000   0.0000000  -0.1582565), wk =   0.0039062
        k(  280) = (  -0.5000000   0.0000000  -0.0791282), wk =   0.0039062
        k(  281) = (  -0.5000000   0.1443376   0.0000000), wk =   0.0039062
        k(  282) = (  -0.5000000   0.1443376   0.0791282), wk =   0.0039062
        k(  283) = (  -0.5000000   0.1443376   0.1582565), wk =   0.0039062
        k(  284) = (  -0.5000000   0.1443376   0.2373847), wk =   0.0039062
        k(  285) = (  -0.5000000   0.1443376  -0.3165130), wk =   0.0039062
        k(  286) = (  -0.5000000   0.1443376  -0.2373847), wk =   0.0039062
        k(  287) = (  -0.5000000   0.1443376  -0.1582565), wk =   0.0039062
        k(  288) = (  -0.5000000   0.1443376  -0.0791282), wk =   0.0039062
        k(  289) = (  -0.5000000  -0.8660258   0.0000000), wk =   0.0039062
        k(  290) = (  -0.5000000  -0.8660258   0.0791282), wk =   0.0039062
        k(  291) = (  -0.5000000  -0.8660258   0.1582565), wk =   0.0039062
        k(  292) = (  -0.5000000  -0.8660258   0.2373847), wk =   0.0039062
        k(  293) = (  -0.5000000  -0.8660258  -0.3165130), wk =   0.0039062
        k(  294) = (  -0.5000000  -0.8660258  -0.2373847), wk =   0.0039062
        k(  295) = (  -0.5000000  -0.8660258  -0.1582565), wk =   0.0039062
        k(  296) = (  -0.5000000  -0.8660258  -0.0791282), wk =   0.0039062
        k(  297) = (  -0.5000000  -0.7216882   0.0000000), wk =   0.0039062
        k(  298) = (  -0.5000000  -0.7216882   0.0791282), wk =   0.0039062
        k(  299) = (  -0.5000000  -0.7216882   0.1582565), wk =   0.0039062
        k(  300) = (  -0.5000000  -0.7216882   0.2373847), wk =   0.0039062
        k(  301) = (  -0.5000000  -0.7216882  -0.3165130), wk =   0.0039062
        k(  302) = (  -0.5000000  -0.7216882  -0.2373847), wk =   0.0039062
        k(  303) = (  -0.5000000  -0.7216882  -0.1582565), wk =   0.0039062
        k(  304) = (  -0.5000000  -0.7216882  -0.0791282), wk =   0.0039062
        k(  305) = (  -0.5000000  -0.5773505   0.0000000), wk =   0.0039062
        k(  306) = (  -0.5000000  -0.5773505   0.0791282), wk =   0.0039062
        k(  307) = (  -0.5000000  -0.5773505   0.1582565), wk =   0.0039062
        k(  308) = (  -0.5000000  -0.5773505   0.2373847), wk =   0.0039062
        k(  309) = (  -0.5000000  -0.5773505  -0.3165130), wk =   0.0039062
        k(  310) = (  -0.5000000  -0.5773505  -0.2373847), wk =   0.0039062
        k(  311) = (  -0.5000000  -0.5773505  -0.1582565), wk =   0.0039062
        k(  312) = (  -0.5000000  -0.5773505  -0.0791282), wk =   0.0039062
        k(  313) = (  -0.5000000  -0.4330129   0.0000000), wk =   0.0039062
        k(  314) = (  -0.5000000  -0.4330129   0.0791282), wk =   0.0039062
        k(  315) = (  -0.5000000  -0.4330129   0.1582565), wk =   0.0039062
        k(  316) = (  -0.5000000  -0.4330129   0.2373847), wk =   0.0039062
        k(  317) = (  -0.5000000  -0.4330129  -0.3165130), wk =   0.0039062
        k(  318) = (  -0.5000000  -0.4330129  -0.2373847), wk =   0.0039062
        k(  319) = (  -0.5000000  -0.4330129  -0.1582565), wk =   0.0039062
        k(  320) = (  -0.5000000  -0.4330129  -0.0791282), wk =   0.0039062
        k(  321) = (  -0.3750000  -0.2165065   0.0000000), wk =   0.0039062
        k(  322) = (  -0.3750000  -0.2165065   0.0791282), wk =   0.0039062
        k(  323) = (  -0.3750000  -0.2165065   0.1582565), wk =   0.0039062
        k(  324) = (  -0.3750000  -0.2165065   0.2373847), wk =   0.0039062
        k(  325) = (  -0.3750000  -0.2165065  -0.3165130), wk =   0.0039062
        k(  326) = (  -0.3750000  -0.2165065  -0.2373847), wk =   0.0039062
        k(  327) = (  -0.3750000  -0.2165065  -0.1582565), wk =   0.0039062
        k(  328) = (  -0.3750000  -0.2165065  -0.0791282), wk =   0.0039062
        k(  329) = (  -0.3750000  -0.0721688   0.0000000), wk =   0.0039062
        k(  330) = (  -0.3750000  -0.0721688   0.0791282), wk =   0.0039062
        k(  331) = (  -0.3750000  -0.0721688   0.1582565), wk =   0.0039062
        k(  332) = (  -0.3750000  -0.0721688   0.2373847), wk =   0.0039062
        k(  333) = (  -0.3750000  -0.0721688  -0.3165130), wk =   0.0039062
        k(  334) = (  -0.3750000  -0.0721688  -0.2373847), wk =   0.0039062
        k(  335) = (  -0.3750000  -0.0721688  -0.1582565), wk =   0.0039062
        k(  336) = (  -0.3750000  -0.0721688  -0.0791282), wk =   0.0039062
        k(  337) = (  -0.3750000   0.0721688   0.0000000), wk =   0.0039062
        k(  338) = (  -0.3750000   0.0721688   0.0791282), wk =   0.0039062
        k(  339) = (  -0.3750000   0.0721688   0.1582565), wk =   0.0039062
        k(  340) = (  -0.3750000   0.0721688   0.2373847), wk =   0.0039062
        k(  341) = (  -0.3750000   0.0721688  -0.3165130), wk =   0.0039062
        k(  342) = (  -0.3750000   0.0721688  -0.2373847), wk =   0.0039062
        k(  343) = (  -0.3750000   0.0721688  -0.1582565), wk =   0.0039062
        k(  344) = (  -0.3750000   0.0721688  -0.0791282), wk =   0.0039062
        k(  345) = (  -0.3750000   0.2165065   0.0000000), wk =   0.0039062
        k(  346) = (  -0.3750000   0.2165065   0.0791282), wk =   0.0039062
        k(  347) = (  -0.3750000   0.2165065   0.1582565), wk =   0.0039062
        k(  348) = (  -0.3750000   0.2165065   0.2373847), wk =   0.0039062
        k(  349) = (  -0.3750000   0.2165065  -0.3165130), wk =   0.0039062
        k(  350) = (  -0.3750000   0.2165065  -0.2373847), wk =   0.0039062
        k(  351) = (  -0.3750000   0.2165065  -0.1582565), wk =   0.0039062
        k(  352) = (  -0.3750000   0.2165065  -0.0791282), wk =   0.0039062
        k(  353) = (  -0.3750000  -0.7938570   0.0000000), wk =   0.0039062
        k(  354) = (  -0.3750000  -0.7938570   0.0791282), wk =   0.0039062
        k(  355) = (  -0.3750000  -0.7938570   0.1582565), wk =   0.0039062
        k(  356) = (  -0.3750000  -0.7938570   0.2373847), wk =   0.0039062
        k(  357) = (  -0.3750000  -0.7938570  -0.3165130), wk =   0.0039062
        k(  358) = (  -0.3750000  -0.7938570  -0.2373847), wk =   0.0039062
        k(  359) = (  -0.3750000  -0.7938570  -0.1582565), wk =   0.0039062
        k(  360) = (  -0.3750000  -0.7938570  -0.0791282), wk =   0.0039062
        k(  361) = (  -0.3750000  -0.6495194   0.0000000), wk =   0.0039062
        k(  362) = (  -0.3750000  -0.6495194   0.0791282), wk =   0.0039062
        k(  363) = (  -0.3750000  -0.6495194   0.1582565), wk =   0.0039062
        k(  364) = (  -0.3750000  -0.6495194   0.2373847), wk =   0.0039062
        k(  365) = (  -0.3750000  -0.6495194  -0.3165130), wk =   0.0039062
        k(  366) = (  -0.3750000  -0.6495194  -0.2373847), wk =   0.0039062
        k(  367) = (  -0.3750000  -0.6495194  -0.1582565), wk =   0.0039062
        k(  368) = (  -0.3750000  -0.6495194  -0.0791282), wk =   0.0039062
        k(  369) = (  -0.3750000  -0.5051817   0.0000000), wk =   0.0039062
        k(  370) = (  -0.3750000  -0.5051817   0.0791282), wk =   0.0039062
        k(  371) = (  -0.3750000  -0.5051817   0.1582565), wk =   0.0039062
        k(  372) = (  -0.3750000  -0.5051817   0.2373847), wk =   0.0039062
        k(  373) = (  -0.3750000  -0.5051817  -0.3165130), wk =   0.0039062
        k(  374) = (  -0.3750000  -0.5051817  -0.2373847), wk =   0.0039062
        k(  375) = (  -0.3750000  -0.5051817  -0.1582565), wk =   0.0039062
        k(  376) = (  -0.3750000  -0.5051817  -0.0791282), wk =   0.0039062
        k(  377) = (  -0.3750000  -0.3608441   0.0000000), wk =   0.0039062
        k(  378) = (  -0.3750000  -0.3608441   0.0791282), wk =   0.0039062
        k(  379) = (  -0.3750000  -0.3608441   0.1582565), wk =   0.0039062
        k(  380) = (  -0.3750000  -0.3608441   0.2373847), wk =   0.0039062
        k(  381) = (  -0.3750000  -0.3608441  -0.3165130), wk =   0.0039062
        k(  382) = (  -0.3750000  -0.3608441  -0.2373847), wk =   0.0039062
        k(  383) = (  -0.3750000  -0.3608441  -0.1582565), wk =   0.0039062
        k(  384) = (  -0.3750000  -0.3608441  -0.0791282), wk =   0.0039062
        k(  385) = (  -0.2500000  -0.1443376   0.0000000), wk =   0.0039062
        k(  386) = (  -0.2500000  -0.1443376   0.0791282), wk =   0.0039062
        k(  387) = (  -0.2500000  -0.1443376   0.1582565), wk =   0.0039062
        k(  388) = (  -0.2500000  -0.1443376   0.2373847), wk =   0.0039062
        k(  389) = (  -0.2500000  -0.1443376  -0.3165130), wk =   0.0039062
        k(  390) = (  -0.2500000  -0.1443376  -0.2373847), wk =   0.0039062
        k(  391) = (  -0.2500000  -0.1443376  -0.1582565), wk =   0.0039062
        k(  392) = (  -0.2500000  -0.1443376  -0.0791282), wk =   0.0039062
        k(  393) = (  -0.2500000   0.0000000   0.0000000), wk =   0.0039062
        k(  394) = (  -0.2500000   0.0000000   0.0791282), wk =   0.0039062
        k(  395) = (  -0.2500000   0.0000000   0.1582565), wk =   0.0039062
        k(  396) = (  -0.2500000   0.0000000   0.2373847), wk =   0.0039062
        k(  397) = (  -0.2500000   0.0000000  -0.3165130), wk =   0.0039062
        k(  398) = (  -0.2500000   0.0000000  -0.2373847), wk =   0.0039062
        k(  399) = (  -0.2500000   0.0000000  -0.1582565), wk =   0.0039062
        k(  400) = (  -0.2500000   0.0000000  -0.0791282), wk =   0.0039062
        k(  401) = (  -0.2500000   0.1443376   0.0000000), wk =   0.0039062
        k(  402) = (  -0.2500000   0.1443376   0.0791282), wk =   0.0039062
        k(  403) = (  -0.2500000   0.1443376   0.1582565), wk =   0.0039062
        k(  404) = (  -0.2500000   0.1443376   0.2373847), wk =   0.0039062
        k(  405) = (  -0.2500000   0.1443376  -0.3165130), wk =   0.0039062
        k(  406) = (  -0.2500000   0.1443376  -0.2373847), wk =   0.0039062
        k(  407) = (  -0.2500000   0.1443376  -0.1582565), wk =   0.0039062
        k(  408) = (  -0.2500000   0.1443376  -0.0791282), wk =   0.0039062
        k(  409) = (  -0.2500000   0.2886753   0.0000000), wk =   0.0039062
        k(  410) = (  -0.2500000   0.2886753   0.0791282), wk =   0.0039062
        k(  411) = (  -0.2500000   0.2886753   0.1582565), wk =   0.0039062
        k(  412) = (  -0.2500000   0.2886753   0.2373847), wk =   0.0039062
        k(  413) = (  -0.2500000   0.2886753  -0.3165130), wk =   0.0039062
        k(  414) = (  -0.2500000   0.2886753  -0.2373847), wk =   0.0039062
        k(  415) = (  -0.2500000   0.2886753  -0.1582565), wk =   0.0039062
        k(  416) = (  -0.2500000   0.2886753  -0.0791282), wk =   0.0039062
        k(  417) = (  -0.2500000  -0.7216882   0.0000000), wk =   0.0039062
        k(  418) = (  -0.2500000  -0.7216882   0.0791282), wk =   0.0039062
        k(  419) = (  -0.2500000  -0.7216882   0.1582565), wk =   0.0039062
        k(  420) = (  -0.2500000  -0.7216882   0.2373847), wk =   0.0039062
        k(  421) = (  -0.2500000  -0.7216882  -0.3165130), wk =   0.0039062
        k(  422) = (  -0.2500000  -0.7216882  -0.2373847), wk =   0.0039062
        k(  423) = (  -0.2500000  -0.7216882  -0.1582565), wk =   0.0039062
        k(  424) = (  -0.2500000  -0.7216882  -0.0791282), wk =   0.0039062
        k(  425) = (  -0.2500000  -0.5773505   0.0000000), wk =   0.0039062
        k(  426) = (  -0.2500000  -0.5773505   0.0791282), wk =   0.0039062
        k(  427) = (  -0.2500000  -0.5773505   0.1582565), wk =   0.0039062
        k(  428) = (  -0.2500000  -0.5773505   0.2373847), wk =   0.0039062
        k(  429) = (  -0.2500000  -0.5773505  -0.3165130), wk =   0.0039062
        k(  430) = (  -0.2500000  -0.5773505  -0.2373847), wk =   0.0039062
        k(  431) = (  -0.2500000  -0.5773505  -0.1582565), wk =   0.0039062
        k(  432) = (  -0.2500000  -0.5773505  -0.0791282), wk =   0.0039062
        k(  433) = (  -0.2500000  -0.4330129   0.0000000), wk =   0.0039062
        k(  434) = (  -0.2500000  -0.4330129   0.0791282), wk =   0.0039062
        k(  435) = (  -0.2500000  -0.4330129   0.1582565), wk =   0.0039062
        k(  436) = (  -0.2500000  -0.4330129   0.2373847), wk =   0.0039062
        k(  437) = (  -0.2500000  -0.4330129  -0.3165130), wk =   0.0039062
        k(  438) = (  -0.2500000  -0.4330129  -0.2373847), wk =   0.0039062
        k(  439) = (  -0.2500000  -0.4330129  -0.1582565), wk =   0.0039062
        k(  440) = (  -0.2500000  -0.4330129  -0.0791282), wk =   0.0039062
        k(  441) = (  -0.2500000  -0.2886753   0.0000000), wk =   0.0039062
        k(  442) = (  -0.2500000  -0.2886753   0.0791282), wk =   0.0039062
        k(  443) = (  -0.2500000  -0.2886753   0.1582565), wk =   0.0039062
        k(  444) = (  -0.2500000  -0.2886753   0.2373847), wk =   0.0039062
        k(  445) = (  -0.2500000  -0.2886753  -0.3165130), wk =   0.0039062
        k(  446) = (  -0.2500000  -0.2886753  -0.2373847), wk =   0.0039062
        k(  447) = (  -0.2500000  -0.2886753  -0.1582565), wk =   0.0039062
        k(  448) = (  -0.2500000  -0.2886753  -0.0791282), wk =   0.0039062
        k(  449) = (  -0.1250000  -0.0721688   0.0000000), wk =   0.0039062
        k(  450) = (  -0.1250000  -0.0721688   0.0791282), wk =   0.0039062
        k(  451) = (  -0.1250000  -0.0721688   0.1582565), wk =   0.0039062
        k(  452) = (  -0.1250000  -0.0721688   0.2373847), wk =   0.0039062
        k(  453) = (  -0.1250000  -0.0721688  -0.3165130), wk =   0.0039062
        k(  454) = (  -0.1250000  -0.0721688  -0.2373847), wk =   0.0039062
        k(  455) = (  -0.1250000  -0.0721688  -0.1582565), wk =   0.0039062
        k(  456) = (  -0.1250000  -0.0721688  -0.0791282), wk =   0.0039062
        k(  457) = (  -0.1250000   0.0721688   0.0000000), wk =   0.0039062
        k(  458) = (  -0.1250000   0.0721688   0.0791282), wk =   0.0039062
        k(  459) = (  -0.1250000   0.0721688   0.1582565), wk =   0.0039062
        k(  460) = (  -0.1250000   0.0721688   0.2373847), wk =   0.0039062
        k(  461) = (  -0.1250000   0.0721688  -0.3165130), wk =   0.0039062
        k(  462) = (  -0.1250000   0.0721688  -0.2373847), wk =   0.0039062
        k(  463) = (  -0.1250000   0.0721688  -0.1582565), wk =   0.0039062
        k(  464) = (  -0.1250000   0.0721688  -0.0791282), wk =   0.0039062
        k(  465) = (  -0.1250000   0.2165065   0.0000000), wk =   0.0039062
        k(  466) = (  -0.1250000   0.2165065   0.0791282), wk =   0.0039062
        k(  467) = (  -0.1250000   0.2165065   0.1582565), wk =   0.0039062
        k(  468) = (  -0.1250000   0.2165065   0.2373847), wk =   0.0039062
        k(  469) = (  -0.1250000   0.2165065  -0.3165130), wk =   0.0039062
        k(  470) = (  -0.1250000   0.2165065  -0.2373847), wk =   0.0039062
        k(  471) = (  -0.1250000   0.2165065  -0.1582565), wk =   0.0039062
        k(  472) = (  -0.1250000   0.2165065  -0.0791282), wk =   0.0039062
        k(  473) = (  -0.1250000   0.3608441   0.0000000), wk =   0.0039062
        k(  474) = (  -0.1250000   0.3608441   0.0791282), wk =   0.0039062
        k(  475) = (  -0.1250000   0.3608441   0.1582565), wk =   0.0039062
        k(  476) = (  -0.1250000   0.3608441   0.2373847), wk =   0.0039062
        k(  477) = (  -0.1250000   0.3608441  -0.3165130), wk =   0.0039062
        k(  478) = (  -0.1250000   0.3608441  -0.2373847), wk =   0.0039062
        k(  479) = (  -0.1250000   0.3608441  -0.1582565), wk =   0.0039062
        k(  480) = (  -0.1250000   0.3608441  -0.0791282), wk =   0.0039062
        k(  481) = (  -0.1250000  -0.6495194   0.0000000), wk =   0.0039062
        k(  482) = (  -0.1250000  -0.6495194   0.0791282), wk =   0.0039062
        k(  483) = (  -0.1250000  -0.6495194   0.1582565), wk =   0.0039062
        k(  484) = (  -0.1250000  -0.6495194   0.2373847), wk =   0.0039062
        k(  485) = (  -0.1250000  -0.6495194  -0.3165130), wk =   0.0039062
        k(  486) = (  -0.1250000  -0.6495194  -0.2373847), wk =   0.0039062
        k(  487) = (  -0.1250000  -0.6495194  -0.1582565), wk =   0.0039062
        k(  488) = (  -0.1250000  -0.6495194  -0.0791282), wk =   0.0039062
        k(  489) = (  -0.1250000  -0.5051817   0.0000000), wk =   0.0039062
        k(  490) = (  -0.1250000  -0.5051817   0.0791282), wk =   0.0039062
        k(  491) = (  -0.1250000  -0.5051817   0.1582565), wk =   0.0039062
        k(  492) = (  -0.1250000  -0.5051817   0.2373847), wk =   0.0039062
        k(  493) = (  -0.1250000  -0.5051817  -0.3165130), wk =   0.0039062
        k(  494) = (  -0.1250000  -0.5051817  -0.2373847), wk =   0.0039062
        k(  495) = (  -0.1250000  -0.5051817  -0.1582565), wk =   0.0039062
        k(  496) = (  -0.1250000  -0.5051817  -0.0791282), wk =   0.0039062
        k(  497) = (  -0.1250000  -0.3608441   0.0000000), wk =   0.0039062
        k(  498) = (  -0.1250000  -0.3608441   0.0791282), wk =   0.0039062
        k(  499) = (  -0.1250000  -0.3608441   0.1582565), wk =   0.0039062
        k(  500) = (  -0.1250000  -0.3608441   0.2373847), wk =   0.0039062
        k(  501) = (  -0.1250000  -0.3608441  -0.3165130), wk =   0.0039062
        k(  502) = (  -0.1250000  -0.3608441  -0.2373847), wk =   0.0039062
        k(  503) = (  -0.1250000  -0.3608441  -0.1582565), wk =   0.0039062
        k(  504) = (  -0.1250000  -0.3608441  -0.0791282), wk =   0.0039062
        k(  505) = (  -0.1250000  -0.2165065   0.0000000), wk =   0.0039062
        k(  506) = (  -0.1250000  -0.2165065   0.0791282), wk =   0.0039062
        k(  507) = (  -0.1250000  -0.2165065   0.1582565), wk =   0.0039062
        k(  508) = (  -0.1250000  -0.2165065   0.2373847), wk =   0.0039062
        k(  509) = (  -0.1250000  -0.2165065  -0.3165130), wk =   0.0039062
        k(  510) = (  -0.1250000  -0.2165065  -0.2373847), wk =   0.0039062
        k(  511) = (  -0.1250000  -0.2165065  -0.1582565), wk =   0.0039062
        k(  512) = (  -0.1250000  -0.2165065  -0.0791282), wk =   0.0039062

                       cryst. coord.
        k(    1) = (   0.0000000   0.0000000   0.0000000), wk =   0.0039062
        k(    2) = (   0.0000000   0.0000000   0.1250000), wk =   0.0039062
        k(    3) = (   0.0000000   0.0000000   0.2500000), wk =   0.0039062
        k(    4) = (   0.0000000   0.0000000   0.3750000), wk =   0.0039062
        k(    5) = (   0.0000000   0.0000000  -0.5000000), wk =   0.0039062
        k(    6) = (   0.0000000   0.0000000  -0.3750000), wk =   0.0039062
        k(    7) = (   0.0000000   0.0000000  -0.2500000), wk =   0.0039062
        k(    8) = (   0.0000000   0.0000000  -0.1250000), wk =   0.0039062
        k(    9) = (   0.0000000   0.1250000   0.0000000), wk =   0.0039062
        k(   10) = (   0.0000000   0.1250000   0.1250000), wk =   0.0039062
        k(   11) = (   0.0000000   0.1250000   0.2500000), wk =   0.0039062
        k(   12) = (   0.0000000   0.1250000   0.3750000), wk =   0.0039062
        k(   13) = (   0.0000000   0.1250000  -0.5000000), wk =   0.0039062
        k(   14) = (   0.0000000   0.1250000  -0.3750000), wk =   0.0039062
        k(   15) = (   0.0000000   0.1250000  -0.2500000), wk =   0.0039062
        k(   16) = (   0.0000000   0.1250000  -0.1250000), wk =   0.0039062
        k(   17) = (   0.0000000   0.2500000   0.0000000), wk =   0.0039062
        k(   18) = (   0.0000000   0.2500000   0.1250000), wk =   0.0039062
        k(   19) = (   0.0000000   0.2500000   0.2500000), wk =   0.0039062
        k(   20) = (   0.0000000   0.2500000   0.3750000), wk =   0.0039062
        k(   21) = (   0.0000000   0.2500000  -0.5000000), wk =   0.0039062
        k(   22) = (   0.0000000   0.2500000  -0.3750000), wk =   0.0039062
        k(   23) = (   0.0000000   0.2500000  -0.2500000), wk =   0.0039062
        k(   24) = (   0.0000000   0.2500000  -0.1250000), wk =   0.0039062
        k(   25) = (   0.0000000   0.3750000   0.0000000), wk =   0.0039062
        k(   26) = (   0.0000000   0.3750000   0.1250000), wk =   0.0039062
        k(   27) = (   0.0000000   0.3750000   0.2500000), wk =   0.0039062
        k(   28) = (   0.0000000   0.3750000   0.3750000), wk =   0.0039062
        k(   29) = (   0.0000000   0.3750000  -0.5000000), wk =   0.0039062
        k(   30) = (   0.0000000   0.3750000  -0.3750000), wk =   0.0039062
        k(   31) = (   0.0000000   0.3750000  -0.2500000), wk =   0.0039062
        k(   32) = (   0.0000000   0.3750000  -0.1250000), wk =   0.0039062
        k(   33) = (   0.0000000  -0.5000000   0.0000000), wk =   0.0039062
        k(   34) = (   0.0000000  -0.5000000   0.1250000), wk =   0.0039062
        k(   35) = (   0.0000000  -0.5000000   0.2500000), wk =   0.0039062
        k(   36) = (   0.0000000  -0.5000000   0.3750000), wk =   0.0039062
        k(   37) = (   0.0000000  -0.5000000  -0.5000000), wk =   0.0039062
        k(   38) = (   0.0000000  -0.5000000  -0.3750000), wk =   0.0039062
        k(   39) = (   0.0000000  -0.5000000  -0.2500000), wk =   0.0039062
        k(   40) = (   0.0000000  -0.5000000  -0.1250000), wk =   0.0039062
        k(   41) = (   0.0000000  -0.3750000   0.0000000), wk =   0.0039062
        k(   42) = (   0.0000000  -0.3750000   0.1250000), wk =   0.0039062
        k(   43) = (   0.0000000  -0.3750000   0.2500000), wk =   0.0039062
        k(   44) = (   0.0000000  -0.3750000   0.3750000), wk =   0.0039062
        k(   45) = (   0.0000000  -0.3750000  -0.5000000), wk =   0.0039062
        k(   46) = (   0.0000000  -0.3750000  -0.3750000), wk =   0.0039062
        k(   47) = (   0.0000000  -0.3750000  -0.2500000), wk =   0.0039062
        k(   48) = (   0.0000000  -0.3750000  -0.1250000), wk =   0.0039062
        k(   49) = (   0.0000000  -0.2500000   0.0000000), wk =   0.0039062
        k(   50) = (   0.0000000  -0.2500000   0.1250000), wk =   0.0039062
        k(   51) = (   0.0000000  -0.2500000   0.2500000), wk =   0.0039062
        k(   52) = (   0.0000000  -0.2500000   0.3750000), wk =   0.0039062
        k(   53) = (   0.0000000  -0.2500000  -0.5000000), wk =   0.0039062
        k(   54) = (   0.0000000  -0.2500000  -0.3750000), wk =   0.0039062
        k(   55) = (   0.0000000  -0.2500000  -0.2500000), wk =   0.0039062
        k(   56) = (   0.0000000  -0.2500000  -0.1250000), wk =   0.0039062
        k(   57) = (   0.0000000  -0.1250000   0.0000000), wk =   0.0039062
        k(   58) = (   0.0000000  -0.1250000   0.1250000), wk =   0.0039062
        k(   59) = (   0.0000000  -0.1250000   0.2500000), wk =   0.0039062
        k(   60) = (   0.0000000  -0.1250000   0.3750000), wk =   0.0039062
        k(   61) = (   0.0000000  -0.1250000  -0.5000000), wk =   0.0039062
        k(   62) = (   0.0000000  -0.1250000  -0.3750000), wk =   0.0039062
        k(   63) = (   0.0000000  -0.1250000  -0.2500000), wk =   0.0039062
        k(   64) = (   0.0000000  -0.1250000  -0.1250000), wk =   0.0039062
        k(   65) = (   0.1250000   0.0000000   0.0000000), wk =   0.0039062
        k(   66) = (   0.1250000   0.0000000   0.1250000), wk =   0.0039062
        k(   67) = (   0.1250000   0.0000000   0.2500000), wk =   0.0039062
        k(   68) = (   0.1250000   0.0000000   0.3750000), wk =   0.0039062
        k(   69) = (   0.1250000   0.0000000  -0.5000000), wk =   0.0039062
        k(   70) = (   0.1250000   0.0000000  -0.3750000), wk =   0.0039062
        k(   71) = (   0.1250000   0.0000000  -0.2500000), wk =   0.0039062
        k(   72) = (   0.1250000   0.0000000  -0.1250000), wk =   0.0039062
        k(   73) = (   0.1250000   0.1250000   0.0000000), wk =   0.0039062
        k(   74) = (   0.1250000   0.1250000   0.1250000), wk =   0.0039062
        k(   75) = (   0.1250000   0.1250000   0.2500000), wk =   0.0039062
        k(   76) = (   0.1250000   0.1250000   0.3750000), wk =   0.0039062
        k(   77) = (   0.1250000   0.1250000  -0.5000000), wk =   0.0039062
        k(   78) = (   0.1250000   0.1250000  -0.3750000), wk =   0.0039062
        k(   79) = (   0.1250000   0.1250000  -0.2500000), wk =   0.0039062
        k(   80) = (   0.1250000   0.1250000  -0.1250000), wk =   0.0039062
        k(   81) = (   0.1250000   0.2500000   0.0000000), wk =   0.0039062
        k(   82) = (   0.1250000   0.2500000   0.1250000), wk =   0.0039062
        k(   83) = (   0.1250000   0.2500000   0.2500000), wk =   0.0039062
        k(   84) = (   0.1250000   0.2500000   0.3750000), wk =   0.0039062
        k(   85) = (   0.1250000   0.2500000  -0.5000000), wk =   0.0039062
        k(   86) = (   0.1250000   0.2500000  -0.3750000), wk =   0.0039062
        k(   87) = (   0.1250000   0.2500000  -0.2500000), wk =   0.0039062
        k(   88) = (   0.1250000   0.2500000  -0.1250000), wk =   0.0039062
        k(   89) = (   0.1250000   0.3750000   0.0000000), wk =   0.0039062
        k(   90) = (   0.1250000   0.3750000   0.1250000), wk =   0.0039062
        k(   91) = (   0.1250000   0.3750000   0.2500000), wk =   0.0039062
        k(   92) = (   0.1250000   0.3750000   0.3750000), wk =   0.0039062
        k(   93) = (   0.1250000   0.3750000  -0.5000000), wk =   0.0039062
        k(   94) = (   0.1250000   0.3750000  -0.3750000), wk =   0.0039062
        k(   95) = (   0.1250000   0.3750000  -0.2500000), wk =   0.0039062
        k(   96) = (   0.1250000   0.3750000  -0.1250000), wk =   0.0039062
        k(   97) = (   0.1250000  -0.5000000   0.0000000), wk =   0.0039062
        k(   98) = (   0.1250000  -0.5000000   0.1250000), wk =   0.0039062
        k(   99) = (   0.1250000  -0.5000000   0.2500000), wk =   0.0039062
        k(  100) = (   0.1250000  -0.5000000   0.3750000), wk =   0.0039062
        k(  101) = (   0.1250000  -0.5000000  -0.5000000), wk =   0.0039062
        k(  102) = (   0.1250000  -0.5000000  -0.3750000), wk =   0.0039062
        k(  103) = (   0.1250000  -0.5000000  -0.2500000), wk =   0.0039062
        k(  104) = (   0.1250000  -0.5000000  -0.1250000), wk =   0.0039062
        k(  105) = (   0.1250000  -0.3750000   0.0000000), wk =   0.0039062
        k(  106) = (   0.1250000  -0.3750000   0.1250000), wk =   0.0039062
        k(  107) = (   0.1250000  -0.3750000   0.2500000), wk =   0.0039062
        k(  108) = (   0.1250000  -0.3750000   0.3750000), wk =   0.0039062
        k(  109) = (   0.1250000  -0.3750000  -0.5000000), wk =   0.0039062
        k(  110) = (   0.1250000  -0.3750000  -0.3750000), wk =   0.0039062
        k(  111) = (   0.1250000  -0.3750000  -0.2500000), wk =   0.0039062
        k(  112) = (   0.1250000  -0.3750000  -0.1250000), wk =   0.0039062
        k(  113) = (   0.1250000  -0.2500000   0.0000000), wk =   0.0039062
        k(  114) = (   0.1250000  -0.2500000   0.1250000), wk =   0.0039062
        k(  115) = (   0.1250000  -0.2500000   0.2500000), wk =   0.0039062
        k(  116) = (   0.1250000  -0.2500000   0.3750000), wk =   0.0039062
        k(  117) = (   0.1250000  -0.2500000  -0.5000000), wk =   0.0039062
        k(  118) = (   0.1250000  -0.2500000  -0.3750000), wk =   0.0039062
        k(  119) = (   0.1250000  -0.2500000  -0.2500000), wk =   0.0039062
        k(  120) = (   0.1250000  -0.2500000  -0.1250000), wk =   0.0039062
        k(  121) = (   0.1250000  -0.1250000   0.0000000), wk =   0.0039062
        k(  122) = (   0.1250000  -0.1250000   0.1250000), wk =   0.0039062
        k(  123) = (   0.1250000  -0.1250000   0.2500000), wk =   0.0039062
        k(  124) = (   0.1250000  -0.1250000   0.3750000), wk =   0.0039062
        k(  125) = (   0.1250000  -0.1250000  -0.5000000), wk =   0.0039062
        k(  126) = (   0.1250000  -0.1250000  -0.3750000), wk =   0.0039062
        k(  127) = (   0.1250000  -0.1250000  -0.2500000), wk =   0.0039062
        k(  128) = (   0.1250000  -0.1250000  -0.1250000), wk =   0.0039062
        k(  129) = (   0.2500000   0.0000000   0.0000000), wk =   0.0039062
        k(  130) = (   0.2500000   0.0000000   0.1250000), wk =   0.0039062
        k(  131) = (   0.2500000   0.0000000   0.2500000), wk =   0.0039062
        k(  132) = (   0.2500000   0.0000000   0.3750000), wk =   0.0039062
        k(  133) = (   0.2500000   0.0000000  -0.5000000), wk =   0.0039062
        k(  134) = (   0.2500000   0.0000000  -0.3750000), wk =   0.0039062
        k(  135) = (   0.2500000   0.0000000  -0.2500000), wk =   0.0039062
        k(  136) = (   0.2500000   0.0000000  -0.1250000), wk =   0.0039062
        k(  137) = (   0.2500000   0.1250000   0.0000000), wk =   0.0039062
        k(  138) = (   0.2500000   0.1250000   0.1250000), wk =   0.0039062
        k(  139) = (   0.2500000   0.1250000   0.2500000), wk =   0.0039062
        k(  140) = (   0.2500000   0.1250000   0.3750000), wk =   0.0039062
        k(  141) = (   0.2500000   0.1250000  -0.5000000), wk =   0.0039062
        k(  142) = (   0.2500000   0.1250000  -0.3750000), wk =   0.0039062
        k(  143) = (   0.2500000   0.1250000  -0.2500000), wk =   0.0039062
        k(  144) = (   0.2500000   0.1250000  -0.1250000), wk =   0.0039062
        k(  145) = (   0.2500000   0.2500000   0.0000000), wk =   0.0039062
        k(  146) = (   0.2500000   0.2500000   0.1250000), wk =   0.0039062
        k(  147) = (   0.2500000   0.2500000   0.2500000), wk =   0.0039062
        k(  148) = (   0.2500000   0.2500000   0.3750000), wk =   0.0039062
        k(  149) = (   0.2500000   0.2500000  -0.5000000), wk =   0.0039062
        k(  150) = (   0.2500000   0.2500000  -0.3750000), wk =   0.0039062
        k(  151) = (   0.2500000   0.2500000  -0.2500000), wk =   0.0039062
        k(  152) = (   0.2500000   0.2500000  -0.1250000), wk =   0.0039062
        k(  153) = (   0.2500000   0.3750000   0.0000000), wk =   0.0039062
        k(  154) = (   0.2500000   0.3750000   0.1250000), wk =   0.0039062
        k(  155) = (   0.2500000   0.3750000   0.2500000), wk =   0.0039062
        k(  156) = (   0.2500000   0.3750000   0.3750000), wk =   0.0039062
        k(  157) = (   0.2500000   0.3750000  -0.5000000), wk =   0.0039062
        k(  158) = (   0.2500000   0.3750000  -0.3750000), wk =   0.0039062
        k(  159) = (   0.2500000   0.3750000  -0.2500000), wk =   0.0039062
        k(  160) = (   0.2500000   0.3750000  -0.1250000), wk =   0.0039062
        k(  161) = (   0.2500000  -0.5000000   0.0000000), wk =   0.0039062
        k(  162) = (   0.2500000  -0.5000000   0.1250000), wk =   0.0039062
        k(  163) = (   0.2500000  -0.5000000   0.2500000), wk =   0.0039062
        k(  164) = (   0.2500000  -0.5000000   0.3750000), wk =   0.0039062
        k(  165) = (   0.2500000  -0.5000000  -0.5000000), wk =   0.0039062
        k(  166) = (   0.2500000  -0.5000000  -0.3750000), wk =   0.0039062
        k(  167) = (   0.2500000  -0.5000000  -0.2500000), wk =   0.0039062
        k(  168) = (   0.2500000  -0.5000000  -0.1250000), wk =   0.0039062
        k(  169) = (   0.2500000  -0.3750000   0.0000000), wk =   0.0039062
        k(  170) = (   0.2500000  -0.3750000   0.1250000), wk =   0.0039062
        k(  171) = (   0.2500000  -0.3750000   0.2500000), wk =   0.0039062
        k(  172) = (   0.2500000  -0.3750000   0.3750000), wk =   0.0039062
        k(  173) = (   0.2500000  -0.3750000  -0.5000000), wk =   0.0039062
        k(  174) = (   0.2500000  -0.3750000  -0.3750000), wk =   0.0039062
        k(  175) = (   0.2500000  -0.3750000  -0.2500000), wk =   0.0039062
        k(  176) = (   0.2500000  -0.3750000  -0.1250000), wk =   0.0039062
        k(  177) = (   0.2500000  -0.2500000   0.0000000), wk =   0.0039062
        k(  178) = (   0.2500000  -0.2500000   0.1250000), wk =   0.0039062
        k(  179) = (   0.2500000  -0.2500000   0.2500000), wk =   0.0039062
        k(  180) = (   0.2500000  -0.2500000   0.3750000), wk =   0.0039062
        k(  181) = (   0.2500000  -0.2500000  -0.5000000), wk =   0.0039062
        k(  182) = (   0.2500000  -0.2500000  -0.3750000), wk =   0.0039062
        k(  183) = (   0.2500000  -0.2500000  -0.2500000), wk =   0.0039062
        k(  184) = (   0.2500000  -0.2500000  -0.1250000), wk =   0.0039062
        k(  185) = (   0.2500000  -0.1250000   0.0000000), wk =   0.0039062
        k(  186) = (   0.2500000  -0.1250000   0.1250000), wk =   0.0039062
        k(  187) = (   0.2500000  -0.1250000   0.2500000), wk =   0.0039062
        k(  188) = (   0.2500000  -0.1250000   0.3750000), wk =   0.0039062
        k(  189) = (   0.2500000  -0.1250000  -0.5000000), wk =   0.0039062
        k(  190) = (   0.2500000  -0.1250000  -0.3750000), wk =   0.0039062
        k(  191) = (   0.2500000  -0.1250000  -0.2500000), wk =   0.0039062
        k(  192) = (   0.2500000  -0.1250000  -0.1250000), wk =   0.0039062
        k(  193) = (   0.3750000   0.0000000   0.0000000), wk =   0.0039062
        k(  194) = (   0.3750000   0.0000000   0.1250000), wk =   0.0039062
        k(  195) = (   0.3750000   0.0000000   0.2500000), wk =   0.0039062
        k(  196) = (   0.3750000   0.0000000   0.3750000), wk =   0.0039062
        k(  197) = (   0.3750000   0.0000000  -0.5000000), wk =   0.0039062
        k(  198) = (   0.3750000   0.0000000  -0.3750000), wk =   0.0039062
        k(  199) = (   0.3750000   0.0000000  -0.2500000), wk =   0.0039062
        k(  200) = (   0.3750000   0.0000000  -0.1250000), wk =   0.0039062
        k(  201) = (   0.3750000   0.1250000   0.0000000), wk =   0.0039062
        k(  202) = (   0.3750000   0.1250000   0.1250000), wk =   0.0039062
        k(  203) = (   0.3750000   0.1250000   0.2500000), wk =   0.0039062
        k(  204) = (   0.3750000   0.1250000   0.3750000), wk =   0.0039062
        k(  205) = (   0.3750000   0.1250000  -0.5000000), wk =   0.0039062
        k(  206) = (   0.3750000   0.1250000  -0.3750000), wk =   0.0039062
        k(  207) = (   0.3750000   0.1250000  -0.2500000), wk =   0.0039062
        k(  208) = (   0.3750000   0.1250000  -0.1250000), wk =   0.0039062
        k(  209) = (   0.3750000   0.2500000   0.0000000), wk =   0.0039062
        k(  210) = (   0.3750000   0.2500000   0.1250000), wk =   0.0039062
        k(  211) = (   0.3750000   0.2500000   0.2500000), wk =   0.0039062
        k(  212) = (   0.3750000   0.2500000   0.3750000), wk =   0.0039062
        k(  213) = (   0.3750000   0.2500000  -0.5000000), wk =   0.0039062
        k(  214) = (   0.3750000   0.2500000  -0.3750000), wk =   0.0039062
        k(  215) = (   0.3750000   0.2500000  -0.2500000), wk =   0.0039062
        k(  216) = (   0.3750000   0.2500000  -0.1250000), wk =   0.0039062
        k(  217) = (   0.3750000   0.3750000   0.0000000), wk =   0.0039062
        k(  218) = (   0.3750000   0.3750000   0.1250000), wk =   0.0039062
        k(  219) = (   0.3750000   0.3750000   0.2500000), wk =   0.0039062
        k(  220) = (   0.3750000   0.3750000   0.3750000), wk =   0.0039062
        k(  221) = (   0.3750000   0.3750000  -0.5000000), wk =   0.0039062
        k(  222) = (   0.3750000   0.3750000  -0.3750000), wk =   0.0039062
        k(  223) = (   0.3750000   0.3750000  -0.2500000), wk =   0.0039062
        k(  224) = (   0.3750000   0.3750000  -0.1250000), wk =   0.0039062
        k(  225) = (   0.3750000  -0.5000000   0.0000000), wk =   0.0039062
        k(  226) = (   0.3750000  -0.5000000   0.1250000), wk =   0.0039062
        k(  227) = (   0.3750000  -0.5000000   0.2500000), wk =   0.0039062
        k(  228) = (   0.3750000  -0.5000000   0.3750000), wk =   0.0039062
        k(  229) = (   0.3750000  -0.5000000  -0.5000000), wk =   0.0039062
        k(  230) = (   0.3750000  -0.5000000  -0.3750000), wk =   0.0039062
        k(  231) = (   0.3750000  -0.5000000  -0.2500000), wk =   0.0039062
        k(  232) = (   0.3750000  -0.5000000  -0.1250000), wk =   0.0039062
        k(  233) = (   0.3750000  -0.3750000   0.0000000), wk =   0.0039062
        k(  234) = (   0.3750000  -0.3750000   0.1250000), wk =   0.0039062
        k(  235) = (   0.3750000  -0.3750000   0.2500000), wk =   0.0039062
        k(  236) = (   0.3750000  -0.3750000   0.3750000), wk =   0.0039062
        k(  237) = (   0.3750000  -0.3750000  -0.5000000), wk =   0.0039062
        k(  238) = (   0.3750000  -0.3750000  -0.3750000), wk =   0.0039062
        k(  239) = (   0.3750000  -0.3750000  -0.2500000), wk =   0.0039062
        k(  240) = (   0.3750000  -0.3750000  -0.1250000), wk =   0.0039062
        k(  241) = (   0.3750000  -0.2500000   0.0000000), wk =   0.0039062
        k(  242) = (   0.3750000  -0.2500000   0.1250000), wk =   0.0039062
        k(  243) = (   0.3750000  -0.2500000   0.2500000), wk =   0.0039062
        k(  244) = (   0.3750000  -0.2500000   0.3750000), wk =   0.0039062
        k(  245) = (   0.3750000  -0.2500000  -0.5000000), wk =   0.0039062
        k(  246) = (   0.3750000  -0.2500000  -0.3750000), wk =   0.0039062
        k(  247) = (   0.3750000  -0.2500000  -0.2500000), wk =   0.0039062
        k(  248) = (   0.3750000  -0.2500000  -0.1250000), wk =   0.0039062
        k(  249) = (   0.3750000  -0.1250000   0.0000000), wk =   0.0039062
        k(  250) = (   0.3750000  -0.1250000   0.1250000), wk =   0.0039062
        k(  251) = (   0.3750000  -0.1250000   0.2500000), wk =   0.0039062
        k(  252) = (   0.3750000  -0.1250000   0.3750000), wk =   0.0039062
        k(  253) = (   0.3750000  -0.1250000  -0.5000000), wk =   0.0039062
        k(  254) = (   0.3750000  -0.1250000  -0.3750000), wk =   0.0039062
        k(  255) = (   0.3750000  -0.1250000  -0.2500000), wk =   0.0039062
        k(  256) = (   0.3750000  -0.1250000  -0.1250000), wk =   0.0039062
        k(  257) = (  -0.5000000   0.0000000   0.0000000), wk =   0.0039062
        k(  258) = (  -0.5000000   0.0000000   0.1250000), wk =   0.0039062
        k(  259) = (  -0.5000000   0.0000000   0.2500000), wk =   0.0039062
        k(  260) = (  -0.5000000   0.0000000   0.3750000), wk =   0.0039062
        k(  261) = (  -0.5000000   0.0000000  -0.5000000), wk =   0.0039062
        k(  262) = (  -0.5000000   0.0000000  -0.3750000), wk =   0.0039062
        k(  263) = (  -0.5000000   0.0000000  -0.2500000), wk =   0.0039062
        k(  264) = (  -0.5000000   0.0000000  -0.1250000), wk =   0.0039062
        k(  265) = (  -0.5000000   0.1250000   0.0000000), wk =   0.0039062
        k(  266) = (  -0.5000000   0.1250000   0.1250000), wk =   0.0039062
        k(  267) = (  -0.5000000   0.1250000   0.2500000), wk =   0.0039062
        k(  268) = (  -0.5000000   0.1250000   0.3750000), wk =   0.0039062
        k(  269) = (  -0.5000000   0.1250000  -0.5000000), wk =   0.0039062
        k(  270) = (  -0.5000000   0.1250000  -0.3750000), wk =   0.0039062
        k(  271) = (  -0.5000000   0.1250000  -0.2500000), wk =   0.0039062
        k(  272) = (  -0.5000000   0.1250000  -0.1250000), wk =   0.0039062
        k(  273) = (  -0.5000000   0.2500000   0.0000000), wk =   0.0039062
        k(  274) = (  -0.5000000   0.2500000   0.1250000), wk =   0.0039062
        k(  275) = (  -0.5000000   0.2500000   0.2500000), wk =   0.0039062
        k(  276) = (  -0.5000000   0.2500000   0.3750000), wk =   0.0039062
        k(  277) = (  -0.5000000   0.2500000  -0.5000000), wk =   0.0039062
        k(  278) = (  -0.5000000   0.2500000  -0.3750000), wk =   0.0039062
        k(  279) = (  -0.5000000   0.2500000  -0.2500000), wk =   0.0039062
        k(  280) = (  -0.5000000   0.2500000  -0.1250000), wk =   0.0039062
        k(  281) = (  -0.5000000   0.3750000   0.0000000), wk =   0.0039062
        k(  282) = (  -0.5000000   0.3750000   0.1250000), wk =   0.0039062
        k(  283) = (  -0.5000000   0.3750000   0.2500000), wk =   0.0039062
        k(  284) = (  -0.5000000   0.3750000   0.3750000), wk =   0.0039062
        k(  285) = (  -0.5000000   0.3750000  -0.5000000), wk =   0.0039062
        k(  286) = (  -0.5000000   0.3750000  -0.3750000), wk =   0.0039062
        k(  287) = (  -0.5000000   0.3750000  -0.2500000), wk =   0.0039062
        k(  288) = (  -0.5000000   0.3750000  -0.1250000), wk =   0.0039062
        k(  289) = (  -0.5000000  -0.5000000   0.0000000), wk =   0.0039062
        k(  290) = (  -0.5000000  -0.5000000   0.1250000), wk =   0.0039062
        k(  291) = (  -0.5000000  -0.5000000   0.2500000), wk =   0.0039062
        k(  292) = (  -0.5000000  -0.5000000   0.3750000), wk =   0.0039062
        k(  293) = (  -0.5000000  -0.5000000  -0.5000000), wk =   0.0039062
        k(  294) = (  -0.5000000  -0.5000000  -0.3750000), wk =   0.0039062
        k(  295) = (  -0.5000000  -0.5000000  -0.2500000), wk =   0.0039062
        k(  296) = (  -0.5000000  -0.5000000  -0.1250000), wk =   0.0039062
        k(  297) = (  -0.5000000  -0.3750000   0.0000000), wk =   0.0039062
        k(  298) = (  -0.5000000  -0.3750000   0.1250000), wk =   0.0039062
        k(  299) = (  -0.5000000  -0.3750000   0.2500000), wk =   0.0039062
        k(  300) = (  -0.5000000  -0.3750000   0.3750000), wk =   0.0039062
        k(  301) = (  -0.5000000  -0.3750000  -0.5000000), wk =   0.0039062
        k(  302) = (  -0.5000000  -0.3750000  -0.3750000), wk =   0.0039062
        k(  303) = (  -0.5000000  -0.3750000  -0.2500000), wk =   0.0039062
        k(  304) = (  -0.5000000  -0.3750000  -0.1250000), wk =   0.0039062
        k(  305) = (  -0.5000000  -0.2500000   0.0000000), wk =   0.0039062
        k(  306) = (  -0.5000000  -0.2500000   0.1250000), wk =   0.0039062
        k(  307) = (  -0.5000000  -0.2500000   0.2500000), wk =   0.0039062
        k(  308) = (  -0.5000000  -0.2500000   0.3750000), wk =   0.0039062
        k(  309) = (  -0.5000000  -0.2500000  -0.5000000), wk =   0.0039062
        k(  310) = (  -0.5000000  -0.2500000  -0.3750000), wk =   0.0039062
        k(  311) = (  -0.5000000  -0.2500000  -0.2500000), wk =   0.0039062
        k(  312) = (  -0.5000000  -0.2500000  -0.1250000), wk =   0.0039062
        k(  313) = (  -0.5000000  -0.1250000   0.0000000), wk =   0.0039062
        k(  314) = (  -0.5000000  -0.1250000   0.1250000), wk =   0.0039062
        k(  315) = (  -0.5000000  -0.1250000   0.2500000), wk =   0.0039062
        k(  316) = (  -0.5000000  -0.1250000   0.3750000), wk =   0.0039062
        k(  317) = (  -0.5000000  -0.1250000  -0.5000000), wk =   0.0039062
        k(  318) = (  -0.5000000  -0.1250000  -0.3750000), wk =   0.0039062
        k(  319) = (  -0.5000000  -0.1250000  -0.2500000), wk =   0.0039062
        k(  320) = (  -0.5000000  -0.1250000  -0.1250000), wk =   0.0039062
        k(  321) = (  -0.3750000   0.0000000   0.0000000), wk =   0.0039062
        k(  322) = (  -0.3750000   0.0000000   0.1250000), wk =   0.0039062
        k(  323) = (  -0.3750000   0.0000000   0.2500000), wk =   0.0039062
        k(  324) = (  -0.3750000   0.0000000   0.3750000), wk =   0.0039062
        k(  325) = (  -0.3750000   0.0000000  -0.5000000), wk =   0.0039062
        k(  326) = (  -0.3750000   0.0000000  -0.3750000), wk =   0.0039062
        k(  327) = (  -0.3750000   0.0000000  -0.2500000), wk =   0.0039062
        k(  328) = (  -0.3750000   0.0000000  -0.1250000), wk =   0.0039062
        k(  329) = (  -0.3750000   0.1250000   0.0000000), wk =   0.0039062
        k(  330) = (  -0.3750000   0.1250000   0.1250000), wk =   0.0039062
        k(  331) = (  -0.3750000   0.1250000   0.2500000), wk =   0.0039062
        k(  332) = (  -0.3750000   0.1250000   0.3750000), wk =   0.0039062
        k(  333) = (  -0.3750000   0.1250000  -0.5000000), wk =   0.0039062
        k(  334) = (  -0.3750000   0.1250000  -0.3750000), wk =   0.0039062
        k(  335) = (  -0.3750000   0.1250000  -0.2500000), wk =   0.0039062
        k(  336) = (  -0.3750000   0.1250000  -0.1250000), wk =   0.0039062
        k(  337) = (  -0.3750000   0.2500000   0.0000000), wk =   0.0039062
        k(  338) = (  -0.3750000   0.2500000   0.1250000), wk =   0.0039062
        k(  339) = (  -0.3750000   0.2500000   0.2500000), wk =   0.0039062
        k(  340) = (  -0.3750000   0.2500000   0.3750000), wk =   0.0039062
        k(  341) = (  -0.3750000   0.2500000  -0.5000000), wk =   0.0039062
        k(  342) = (  -0.3750000   0.2500000  -0.3750000), wk =   0.0039062
        k(  343) = (  -0.3750000   0.2500000  -0.2500000), wk =   0.0039062
        k(  344) = (  -0.3750000   0.2500000  -0.1250000), wk =   0.0039062
        k(  345) = (  -0.3750000   0.3750000   0.0000000), wk =   0.0039062
        k(  346) = (  -0.3750000   0.3750000   0.1250000), wk =   0.0039062
        k(  347) = (  -0.3750000   0.3750000   0.2500000), wk =   0.0039062
        k(  348) = (  -0.3750000   0.3750000   0.3750000), wk =   0.0039062
        k(  349) = (  -0.3750000   0.3750000  -0.5000000), wk =   0.0039062
        k(  350) = (  -0.3750000   0.3750000  -0.3750000), wk =   0.0039062
        k(  351) = (  -0.3750000   0.3750000  -0.2500000), wk =   0.0039062
        k(  352) = (  -0.3750000   0.3750000  -0.1250000), wk =   0.0039062
        k(  353) = (  -0.3750000  -0.5000000   0.0000000), wk =   0.0039062
        k(  354) = (  -0.3750000  -0.5000000   0.1250000), wk =   0.0039062
        k(  355) = (  -0.3750000  -0.5000000   0.2500000), wk =   0.0039062
        k(  356) = (  -0.3750000  -0.5000000   0.3750000), wk =   0.0039062
        k(  357) = (  -0.3750000  -0.5000000  -0.5000000), wk =   0.0039062
        k(  358) = (  -0.3750000  -0.5000000  -0.3750000), wk =   0.0039062
        k(  359) = (  -0.3750000  -0.5000000  -0.2500000), wk =   0.0039062
        k(  360) = (  -0.3750000  -0.5000000  -0.1250000), wk =   0.0039062
        k(  361) = (  -0.3750000  -0.3750000   0.0000000), wk =   0.0039062
        k(  362) = (  -0.3750000  -0.3750000   0.1250000), wk =   0.0039062
        k(  363) = (  -0.3750000  -0.3750000   0.2500000), wk =   0.0039062
        k(  364) = (  -0.3750000  -0.3750000   0.3750000), wk =   0.0039062
        k(  365) = (  -0.3750000  -0.3750000  -0.5000000), wk =   0.0039062
        k(  366) = (  -0.3750000  -0.3750000  -0.3750000), wk =   0.0039062
        k(  367) = (  -0.3750000  -0.3750000  -0.2500000), wk =   0.0039062
        k(  368) = (  -0.3750000  -0.3750000  -0.1250000), wk =   0.0039062
        k(  369) = (  -0.3750000  -0.2500000   0.0000000), wk =   0.0039062
        k(  370) = (  -0.3750000  -0.2500000   0.1250000), wk =   0.0039062
        k(  371) = (  -0.3750000  -0.2500000   0.2500000), wk =   0.0039062
        k(  372) = (  -0.3750000  -0.2500000   0.3750000), wk =   0.0039062
        k(  373) = (  -0.3750000  -0.2500000  -0.5000000), wk =   0.0039062
        k(  374) = (  -0.3750000  -0.2500000  -0.3750000), wk =   0.0039062
        k(  375) = (  -0.3750000  -0.2500000  -0.2500000), wk =   0.0039062
        k(  376) = (  -0.3750000  -0.2500000  -0.1250000), wk =   0.0039062
        k(  377) = (  -0.3750000  -0.1250000   0.0000000), wk =   0.0039062
        k(  378) = (  -0.3750000  -0.1250000   0.1250000), wk =   0.0039062
        k(  379) = (  -0.3750000  -0.1250000   0.2500000), wk =   0.0039062
        k(  380) = (  -0.3750000  -0.1250000   0.3750000), wk =   0.0039062
        k(  381) = (  -0.3750000  -0.1250000  -0.5000000), wk =   0.0039062
        k(  382) = (  -0.3750000  -0.1250000  -0.3750000), wk =   0.0039062
        k(  383) = (  -0.3750000  -0.1250000  -0.2500000), wk =   0.0039062
        k(  384) = (  -0.3750000  -0.1250000  -0.1250000), wk =   0.0039062
        k(  385) = (  -0.2500000   0.0000000   0.0000000), wk =   0.0039062
        k(  386) = (  -0.2500000   0.0000000   0.1250000), wk =   0.0039062
        k(  387) = (  -0.2500000   0.0000000   0.2500000), wk =   0.0039062
        k(  388) = (  -0.2500000   0.0000000   0.3750000), wk =   0.0039062
        k(  389) = (  -0.2500000   0.0000000  -0.5000000), wk =   0.0039062
        k(  390) = (  -0.2500000   0.0000000  -0.3750000), wk =   0.0039062
        k(  391) = (  -0.2500000   0.0000000  -0.2500000), wk =   0.0039062
        k(  392) = (  -0.2500000   0.0000000  -0.1250000), wk =   0.0039062
        k(  393) = (  -0.2500000   0.1250000   0.0000000), wk =   0.0039062
        k(  394) = (  -0.2500000   0.1250000   0.1250000), wk =   0.0039062
        k(  395) = (  -0.2500000   0.1250000   0.2500000), wk =   0.0039062
        k(  396) = (  -0.2500000   0.1250000   0.3750000), wk =   0.0039062
        k(  397) = (  -0.2500000   0.1250000  -0.5000000), wk =   0.0039062
        k(  398) = (  -0.2500000   0.1250000  -0.3750000), wk =   0.0039062
        k(  399) = (  -0.2500000   0.1250000  -0.2500000), wk =   0.0039062
        k(  400) = (  -0.2500000   0.1250000  -0.1250000), wk =   0.0039062
        k(  401) = (  -0.2500000   0.2500000   0.0000000), wk =   0.0039062
        k(  402) = (  -0.2500000   0.2500000   0.1250000), wk =   0.0039062
        k(  403) = (  -0.2500000   0.2500000   0.2500000), wk =   0.0039062
        k(  404) = (  -0.2500000   0.2500000   0.3750000), wk =   0.0039062
        k(  405) = (  -0.2500000   0.2500000  -0.5000000), wk =   0.0039062
        k(  406) = (  -0.2500000   0.2500000  -0.3750000), wk =   0.0039062
        k(  407) = (  -0.2500000   0.2500000  -0.2500000), wk =   0.0039062
        k(  408) = (  -0.2500000   0.2500000  -0.1250000), wk =   0.0039062
        k(  409) = (  -0.2500000   0.3750000   0.0000000), wk =   0.0039062
        k(  410) = (  -0.2500000   0.3750000   0.1250000), wk =   0.0039062
        k(  411) = (  -0.2500000   0.3750000   0.2500000), wk =   0.0039062
        k(  412) = (  -0.2500000   0.3750000   0.3750000), wk =   0.0039062
        k(  413) = (  -0.2500000   0.3750000  -0.5000000), wk =   0.0039062
        k(  414) = (  -0.2500000   0.3750000  -0.3750000), wk =   0.0039062
        k(  415) = (  -0.2500000   0.3750000  -0.2500000), wk =   0.0039062
        k(  416) = (  -0.2500000   0.3750000  -0.1250000), wk =   0.0039062
        k(  417) = (  -0.2500000  -0.5000000   0.0000000), wk =   0.0039062
        k(  418) = (  -0.2500000  -0.5000000   0.1250000), wk =   0.0039062
        k(  419) = (  -0.2500000  -0.5000000   0.2500000), wk =   0.0039062
        k(  420) = (  -0.2500000  -0.5000000   0.3750000), wk =   0.0039062
        k(  421) = (  -0.2500000  -0.5000000  -0.5000000), wk =   0.0039062
        k(  422) = (  -0.2500000  -0.5000000  -0.3750000), wk =   0.0039062
        k(  423) = (  -0.2500000  -0.5000000  -0.2500000), wk =   0.0039062
        k(  424) = (  -0.2500000  -0.5000000  -0.1250000), wk =   0.0039062
        k(  425) = (  -0.2500000  -0.3750000   0.0000000), wk =   0.0039062
        k(  426) = (  -0.2500000  -0.3750000   0.1250000), wk =   0.0039062
        k(  427) = (  -0.2500000  -0.3750000   0.2500000), wk =   0.0039062
        k(  428) = (  -0.2500000  -0.3750000   0.3750000), wk =   0.0039062
        k(  429) = (  -0.2500000  -0.3750000  -0.5000000), wk =   0.0039062
        k(  430) = (  -0.2500000  -0.3750000  -0.3750000), wk =   0.0039062
        k(  431) = (  -0.2500000  -0.3750000  -0.2500000), wk =   0.0039062
        k(  432) = (  -0.2500000  -0.3750000  -0.1250000), wk =   0.0039062
        k(  433) = (  -0.2500000  -0.2500000   0.0000000), wk =   0.0039062
        k(  434) = (  -0.2500000  -0.2500000   0.1250000), wk =   0.0039062
        k(  435) = (  -0.2500000  -0.2500000   0.2500000), wk =   0.0039062
        k(  436) = (  -0.2500000  -0.2500000   0.3750000), wk =   0.0039062
        k(  437) = (  -0.2500000  -0.2500000  -0.5000000), wk =   0.0039062
        k(  438) = (  -0.2500000  -0.2500000  -0.3750000), wk =   0.0039062
        k(  439) = (  -0.2500000  -0.2500000  -0.2500000), wk =   0.0039062
        k(  440) = (  -0.2500000  -0.2500000  -0.1250000), wk =   0.0039062
        k(  441) = (  -0.2500000  -0.1250000   0.0000000), wk =   0.0039062
        k(  442) = (  -0.2500000  -0.1250000   0.1250000), wk =   0.0039062
        k(  443) = (  -0.2500000  -0.1250000   0.2500000), wk =   0.0039062
        k(  444) = (  -0.2500000  -0.1250000   0.3750000), wk =   0.0039062
        k(  445) = (  -0.2500000  -0.1250000  -0.5000000), wk =   0.0039062
        k(  446) = (  -0.2500000  -0.1250000  -0.3750000), wk =   0.0039062
        k(  447) = (  -0.2500000  -0.1250000  -0.2500000), wk =   0.0039062
        k(  448) = (  -0.2500000  -0.1250000  -0.1250000), wk =   0.0039062
        k(  449) = (  -0.1250000   0.0000000   0.0000000), wk =   0.0039062
        k(  450) = (  -0.1250000   0.0000000   0.1250000), wk =   0.0039062
        k(  451) = (  -0.1250000   0.0000000   0.2500000), wk =   0.0039062
        k(  452) = (  -0.1250000   0.0000000   0.3750000), wk =   0.0039062
        k(  453) = (  -0.1250000   0.0000000  -0.5000000), wk =   0.0039062
        k(  454) = (  -0.1250000   0.0000000  -0.3750000), wk =   0.0039062
        k(  455) = (  -0.1250000   0.0000000  -0.2500000), wk =   0.0039062
        k(  456) = (  -0.1250000   0.0000000  -0.1250000), wk =   0.0039062
        k(  457) = (  -0.1250000   0.1250000   0.0000000), wk =   0.0039062
        k(  458) = (  -0.1250000   0.1250000   0.1250000), wk =   0.0039062
        k(  459) = (  -0.1250000   0.1250000   0.2500000), wk =   0.0039062
        k(  460) = (  -0.1250000   0.1250000   0.3750000), wk =   0.0039062
        k(  461) = (  -0.1250000   0.1250000  -0.5000000), wk =   0.0039062
        k(  462) = (  -0.1250000   0.1250000  -0.3750000), wk =   0.0039062
        k(  463) = (  -0.1250000   0.1250000  -0.2500000), wk =   0.0039062
        k(  464) = (  -0.1250000   0.1250000  -0.1250000), wk =   0.0039062
        k(  465) = (  -0.1250000   0.2500000   0.0000000), wk =   0.0039062
        k(  466) = (  -0.1250000   0.2500000   0.1250000), wk =   0.0039062
        k(  467) = (  -0.1250000   0.2500000   0.2500000), wk =   0.0039062
        k(  468) = (  -0.1250000   0.2500000   0.3750000), wk =   0.0039062
        k(  469) = (  -0.1250000   0.2500000  -0.5000000), wk =   0.0039062
        k(  470) = (  -0.1250000   0.2500000  -0.3750000), wk =   0.0039062
        k(  471) = (  -0.1250000   0.2500000  -0.2500000), wk =   0.0039062
        k(  472) = (  -0.1250000   0.2500000  -0.1250000), wk =   0.0039062
        k(  473) = (  -0.1250000   0.3750000   0.0000000), wk =   0.0039062
        k(  474) = (  -0.1250000   0.3750000   0.1250000), wk =   0.0039062
        k(  475) = (  -0.1250000   0.3750000   0.2500000), wk =   0.0039062
        k(  476) = (  -0.1250000   0.3750000   0.3750000), wk =   0.0039062
        k(  477) = (  -0.1250000   0.3750000  -0.5000000), wk =   0.0039062
        k(  478) = (  -0.1250000   0.3750000  -0.3750000), wk =   0.0039062
        k(  479) = (  -0.1250000   0.3750000  -0.2500000), wk =   0.0039062
        k(  480) = (  -0.1250000   0.3750000  -0.1250000), wk =   0.0039062
        k(  481) = (  -0.1250000  -0.5000000   0.0000000), wk =   0.0039062
        k(  482) = (  -0.1250000  -0.5000000   0.1250000), wk =   0.0039062
        k(  483) = (  -0.1250000  -0.5000000   0.2500000), wk =   0.0039062
[...]
     1.0000   1.0000   0.0000   0.0000

          k =-0.2500-0.2887 0.0000 (   458 PWs)   bands (ev):

    -0.1172   7.6959   8.9206  14.1315

     occupation numbers 
     1.0000   1.0000   0.0001   0.0000

          k =-0.2500-0.2887 0.0791 (   455 PWs)   bands (ev):

     0.0130   6.2883  10.4409  14.3834

     occupation numbers 
     1.0000   1.0000   0.0000   0.0000

          k =-0.2500-0.2887 0.1583 (   455 PWs)   bands (ev):

     0.4051   4.6176  12.2981  15.2061

     occupation numbers 
     1.0000   1.0000   0.0000   0.0000

          k =-0.2500-0.2887 0.2374 (   456 PWs)   bands (ev):

     1.0600   3.1709  13.7730  16.0793

     occupation numbers 
     1.0000   1.0000   0.0000   0.0000

          k =-0.2500-0.2887-0.3165 (   452 PWs)   bands (ev):

     1.9539   2.0096  14.9714  15.0393

     occupation numbers 
     1.0000   1.0000   0.0000   0.0000

          k =-0.2500-0.2887-0.2374 (   456 PWs)   bands (ev):

     1.0606   3.1693  13.7653  16.0976

     occupation numbers 
     1.0000   1.0000   0.0000   0.0000

          k =-0.2500-0.2887-0.1583 (   455 PWs)   bands (ev):

     0.4055   4.6153  12.2945  15.2324

     occupation numbers 
     1.0000   1.0000   0.0000   0.0000

          k =-0.2500-0.2887-0.0791 (   455 PWs)   bands (ev):

     0.0132   6.2858  10.4416  14.3935

     occupation numbers 
     1.0000   1.0000   0.0000   0.0000

          k =-0.1250-0.0722 0.0000 (   447 PWs)   bands (ev):

    -2.8248   4.1554   9.2562  21.0614

     occupation numbers 
     1.0000   1.0000   0.0000   0.0000

          k =-0.1250-0.0722 0.0791 (   455 PWs)   bands (ev):

    -2.6902   3.3735  10.3477  21.2046

     occupation numbers 
     1.0000   1.0000   0.0000   0.0000

          k =-0.1250-0.0722 0.1583 (   461 PWs)   bands (ev):

    -2.2860   1.9292  12.7141  21.6227

     occupation numbers 
     1.0000   1.0000   0.0000   0.0000

          k =-0.1250-0.0722 0.2374 (   465 PWs)   bands (ev):

    -1.6128   0.5237  15.6160  22.2949

     occupation numbers 
     1.0000   1.0000   0.0000   0.0000

          k =-0.1250-0.0722-0.3165 (   468 PWs)   bands (ev):

    -0.6990  -0.6443  18.7748  18.8598

     occupation numbers 
     1.0000   1.0000   0.0000   0.0000

          k =-0.1250-0.0722-0.2374 (   465 PWs)   bands (ev):

    -1.6125   0.5231  15.6214  22.2415

     occupation numbers 
     1.0000   1.0000   0.0000   0.0000

          k =-0.1250-0.0722-0.1583 (   461 PWs)   bands (ev):

    -2.2860   1.9283  12.7169  21.6207

     occupation numbers 
     1.0000   1.0000   0.0000   0.0000

          k =-0.1250-0.0722-0.0791 (   455 PWs)   bands (ev):

    -2.6903   3.3727  10.3507  21.2020

     occupation numbers 
     1.0000   1.0000   0.0000   0.0000

          k =-0.1250 0.0722 0.0000 (   447 PWs)   bands (ev):

    -2.8227   4.1451   9.3127  20.9500

     occupation numbers 
     1.0000   1.0000   0.0000   0.0000

          k =-0.1250 0.0722 0.0791 (   455 PWs)   bands (ev):

    -2.6874   3.3732  10.3863  21.0415

     occupation numbers 
     1.0000   1.0000   0.0000   0.0000

          k =-0.1250 0.0722 0.1583 (   461 PWs)   bands (ev):

    -2.2816   1.9371  12.7180  21.2504

     occupation numbers 
     1.0000   1.0000   0.0000   0.0000

          k =-0.1250 0.0722 0.2374 (   465 PWs)   bands (ev):

    -1.6063   0.5337  15.5545  20.9146

     occupation numbers 
     1.0000   1.0000   0.0000   0.0000

          k =-0.1250 0.0722-0.3165 (   468 PWs)   bands (ev):

    -0.6900  -0.6351  18.5185  18.6085

     occupation numbers 
     1.0000   1.0000   0.0000   0.0000

          k =-0.1250 0.0722-0.2374 (   465 PWs)   bands (ev):

    -1.6062   0.5333  15.5628  20.8768

     occupation numbers 
     1.0000   1.0000   0.0000   0.0000

          k =-0.1250 0.0722-0.1583 (   461 PWs)   bands (ev):

    -2.2815   1.9365  12.7226  21.2278

     occupation numbers 
     1.0000   1.0000   0.0000   0.0000

          k =-0.1250 0.0722-0.0791 (   455 PWs)   bands (ev):

    -2.6875   3.3725  10.3889  21.0300

     occupation numbers 
     1.0000   1.0000   0.0000   0.0000

          k =-0.1250 0.2165 0.0000 (   453 PWs)   bands (ev):

    -1.9177   5.3036   9.5747  17.7471

     occupation numbers 
     1.0000   1.0000   0.0000   0.0000

          k =-0.1250 0.2165 0.0791 (   458 PWs)   bands (ev):

    -1.7812   4.4305  10.7244  17.8415

     occupation numbers 
     1.0000   1.0000   0.0000   0.0000

          k =-0.1250 0.2165 0.1583 (   457 PWs)   bands (ev):

    -1.3725   2.9142  13.0478  18.1013

     occupation numbers 
     1.0000   1.0000   0.0000   0.0000

          k =-0.1250 0.2165 0.2374 (   458 PWs)   bands (ev):

    -0.6905   1.4763  15.6951  18.3954

     occupation numbers 
     1.0000   1.0000   0.0000   0.0000

          k =-0.1250 0.2165-0.3165 (   458 PWs)   bands (ev):

     0.2346   0.2908  17.8895  17.9634

     occupation numbers 
     1.0000   1.0000   0.0000   0.0000

          k =-0.1250 0.2165-0.2374 (   458 PWs)   bands (ev):

    -0.6904   1.4763  15.6959  18.3953

     occupation numbers 
     1.0000   1.0000   0.0000   0.0000

          k =-0.1250 0.2165-0.1583 (   457 PWs)   bands (ev):

    -1.3725   2.9141  13.0480  18.0997

     occupation numbers 
     1.0000   1.0000   0.0000   0.0000

          k =-0.1250 0.2165-0.0791 (   458 PWs)   bands (ev):

    -1.7811   4.4304  10.7247  17.8406

     occupation numbers 
     1.0000   1.0000   0.0000   0.0000

          k =-0.1250 0.3608 0.0000 (   458 PWs)   bands (ev):

    -0.1112   7.5866   9.3525  13.9355

     occupation numbers 
     1.0000   1.0000   0.0000   0.0000

          k =-0.1250 0.3608 0.0791 (   455 PWs)   bands (ev):

     0.0251   6.3633  10.6441  14.1497

     occupation numbers 
     1.0000   1.0000   0.0000   0.0000

          k =-0.1250 0.3608 0.1583 (   455 PWs)   bands (ev):

     0.4338   4.7283  12.2930  14.8924

     occupation numbers 
     1.0000   1.0000   0.0000   0.0000

          k =-0.1250 0.3608 0.2374 (   456 PWs)   bands (ev):

     1.1138   3.2742  13.4727  15.1900

     occupation numbers 
     1.0000   1.0000   0.0000   0.0000

          k =-0.1250 0.3608-0.3165 (   452 PWs)   bands (ev):

     2.0342   2.0916  14.3488  14.4174

     occupation numbers 
     1.0000   1.0000   0.0000   0.0000

          k =-0.1250 0.3608-0.2374 (   456 PWs)   bands (ev):

     1.1137   3.2748  13.4486  15.1960

     occupation numbers 
     1.0000   1.0000   0.0000   0.0000

          k =-0.1250 0.3608-0.1583 (   455 PWs)   bands (ev):

     0.4343   4.7299  12.2657  14.9334

     occupation numbers 
     1.0000   1.0000   0.0000   0.0000

          k =-0.1250 0.3608-0.0791 (   455 PWs)   bands (ev):

     0.0251   6.3664  10.6287  14.1669

     occupation numbers 
     1.0000   1.0000   0.0000   0.0000

          k =-0.1250-0.6495 0.0000 (   454 PWs)   bands (ev):

     2.4769   6.5541  10.7258  13.6701

     occupation numbers 
     1.0000   1.0000   0.0000   0.0000

          k =-0.1250-0.6495 0.0791 (   455 PWs)   bands (ev):

     2.6064   6.4286  10.3269  13.6553

     occupation numbers 
     1.0000   1.0000   0.0000   0.0000

          k =-0.1250-0.6495 0.1583 (   456 PWs)   bands (ev):

     2.9866   5.9921   9.8448  12.2965

     occupation numbers 
     1.0000   1.0000   0.0000   0.0000

          k =-0.1250-0.6495 0.2374 (   456 PWs)   bands (ev):

     3.5947   5.2439   9.8370  11.1391

     occupation numbers 
     1.0000   1.0000   0.0000   0.0000

          k =-0.1250-0.6495-0.3165 (   460 PWs)   bands (ev):

     4.3589   4.4048  10.2786  10.3213

     occupation numbers 
     1.0000   1.0000   0.0000   0.0000

          k =-0.1250-0.6495-0.2374 (   456 PWs)   bands (ev):

     3.5946   5.2472   9.8251  11.1418

     occupation numbers 
     1.0000   1.0000   0.0000   0.0000

          k =-0.1250-0.6495-0.1583 (   456 PWs)   bands (ev):

     2.9863   5.9967   9.8292  12.2971

     occupation numbers 
     1.0000   1.0000   0.0000   0.0000

          k =-0.1250-0.6495-0.0791 (   455 PWs)   bands (ev):

     2.6062   6.4319  10.3147  13.6905

     occupation numbers 
     1.0000   1.0000   0.0000   0.0000

          k =-0.1250-0.5052 0.0000 (   454 PWs)   bands (ev):

     2.4632   6.5707  10.8202  12.9777

     occupation numbers 
     1.0000   1.0000   0.0000   0.0000

          k =-0.1250-0.5052 0.0791 (   455 PWs)   bands (ev):

     2.5883   6.4529  10.2548  13.5620

     occupation numbers 
     1.0000   1.0000   0.0000   0.0000

          k =-0.1250-0.5052 0.1583 (   456 PWs)   bands (ev):

     2.9568   6.0036   9.7091  12.5860

     occupation numbers 
     1.0000   1.0000   0.0000   0.0000

          k =-0.1250-0.5052 0.2374 (   456 PWs)   bands (ev):

     3.5522   5.2180   9.7845  11.3465

     occupation numbers 
     1.0000   1.0000   0.0000   0.0000

          k =-0.1250-0.5052-0.3165 (   460 PWs)   bands (ev):

     4.3130   4.3585  10.3577  10.4037

     occupation numbers 
     1.0000   1.0000   0.0000   0.0000

          k =-0.1250-0.5052-0.2374 (   456 PWs)   bands (ev):

     3.5532   5.2146   9.7949  11.3393

     occupation numbers 
     1.0000   1.0000   0.0000   0.0000

          k =-0.1250-0.5052-0.1583 (   456 PWs)   bands (ev):

     2.9572   5.9989   9.7196  12.5813

     occupation numbers 
     1.0000   1.0000   0.0000   0.0000

          k =-0.1250-0.5052-0.0791 (   455 PWs)   bands (ev):

     2.5885   6.4496  10.2608  13.5697

     occupation numbers 
     1.0000   1.0000   0.0000   0.0000

          k =-0.1250-0.3608 0.0000 (   458 PWs)   bands (ev):

    -0.1217   7.6503   9.2344  13.6256

     occupation numbers 
     1.0000   1.0000   0.0000   0.0000

          k =-0.1250-0.3608 0.0791 (   455 PWs)   bands (ev):

     0.0114   6.3493  10.6032  13.9190

     occupation numbers 
     1.0000   1.0000   0.0000   0.0000

          k =-0.1250-0.3608 0.1583 (   455 PWs)   bands (ev):

     0.4119   4.6834  12.2688  14.9187

     occupation numbers 
     1.0000   1.0000   0.0000   0.0000

          k =-0.1250-0.3608 0.2374 (   456 PWs)   bands (ev):

     1.0793   3.2227  13.4887  15.5285

     occupation numbers 
     1.0000   1.0000   0.0000   0.0000

          k =-0.1250-0.3608-0.3165 (   452 PWs)   bands (ev):

     1.9889   2.0455  14.5197  14.5870

     occupation numbers 
     1.0000   1.0000   0.0000   0.0000

          k =-0.1250-0.3608-0.2374 (   456 PWs)   bands (ev):

     1.0799   3.2208  13.5126  15.5049

     occupation numbers 
     1.0000   1.0000   0.0000   0.0000

          k =-0.1250-0.3608-0.1583 (   455 PWs)   bands (ev):

     0.4121   4.6801  12.2953  14.9054

     occupation numbers 
     1.0000   1.0000   0.0000   0.0000

          k =-0.1250-0.3608-0.0791 (   455 PWs)   bands (ev):

     0.0115   6.3440  10.6213  13.9069

     occupation numbers 
     1.0000   1.0000   0.0000   0.0000

          k =-0.1250-0.2165 0.0000 (   453 PWs)   bands (ev):

    -1.9243   5.3367   9.4136  18.4563

     occupation numbers 
     1.0000   1.0000   0.0000   0.0000

          k =-0.1250-0.2165 0.0791 (   458 PWs)   bands (ev):

    -1.7897   4.4286  10.6134  18.3371

     occupation numbers 
     1.0000   1.0000   0.0000   0.0000

          k =-0.1250-0.2165 0.1583 (   457 PWs)   bands (ev):

    -1.3856   2.8883  13.0154  18.5809

     occupation numbers 
     1.0000   1.0000   0.0000   0.0000

          k =-0.1250-0.2165 0.2374 (   458 PWs)   bands (ev):

    -0.7106   1.4456  15.8134  19.1874

     occupation numbers 
     1.0000   1.0000   0.0000   0.0000

          k =-0.1250-0.2165-0.3165 (   458 PWs)   bands (ev):

     0.2073   0.2631  18.5395  18.5987

     occupation numbers 
     1.0000   1.0000   0.0000   0.0000

          k =-0.1250-0.2165-0.2374 (   458 PWs)   bands (ev):

    -0.7104   1.4451  15.8311  19.1744

     occupation numbers 
     1.0000   1.0000   0.0000   0.0000

          k =-0.1250-0.2165-0.1583 (   457 PWs)   bands (ev):

    -1.3855   2.8868  13.0247  18.5997

     occupation numbers 
     1.0000   1.0000   0.0000   0.0000

          k =-0.1250-0.2165-0.0791 (   458 PWs)   bands (ev):

    -1.7897   4.4268  10.6191  19.2183

     occupation numbers 
     1.0000   1.0000   0.0000   0.0000

     the Fermi energy is     8.6727 ev

!    total energy              =      -5.36232054 Ry
     estimated scf accuracy    <       0.00213563 Ry
     smearing contrib. (-TS)   =      -0.00003069 Ry
     internal energy E=F+TS    =      -5.36228984 Ry

     The total energy is F=E-TS. E is the sum of the following terms:
     one-electron contribution =       4.06212894 Ry
     hartree contribution      =       0.00492620 Ry
     xc contribution           =      -3.29516357 Ry
     ewald contribution        =      -6.13418142 Ry

     convergence has been achieved in   1 iterations

     Forces acting on atoms (cartesian axes, Ry/au):

     atom    1 type  1   force =     0.03311593    0.01543773   -0.00083465
     atom    2 type  1   force =    -0.03311593   -0.01543773    0.00083465
     The non-local contrib.  to forces
     atom    1 type  1   force =     0.04455832    0.01907364   -0.00425150
     atom    2 type  1   force =    -0.04453901   -0.01910068    0.00423406
     The ionic contribution  to forces
     atom    1 type  1   force =     0.02337188    0.01167467   -0.01010977
     atom    2 type  1   force =    -0.02337188   -0.01167467    0.01010977
     The local contribution  to forces
     atom    1 type  1   force =    -0.03321219   -0.01451701    0.01526275
     atom    2 type  1   force =     0.03320728    0.01452520   -0.01525648
     The core correction contribution to forces
     atom    1 type  1   force =    -0.00195167   -0.00093615    0.00045838
     atom    2 type  1   force =     0.00195045    0.00093717   -0.00045756
     The Hubbard contrib.    to forces
     atom    1 type  1   force =     0.00000000    0.00000000    0.00000000
     atom    2 type  1   force =     0.00000000    0.00000000    0.00000000
     The SCF correction term to forces
     atom    1 type  1   force =     0.00035623    0.00013366   -0.00219969
     atom    2 type  1   force =    -0.00035613   -0.00013367    0.00219969

     Total force =     0.051685     Total SCF correction =     0.003157


     Computing stress (Cartesian axis) and pressure

          total   stress  (Ry/bohr**3)                   (kbar)     P=       15.64
   0.00005355   0.00020739  -0.00001629            7.88       30.51       -2.40
   0.00020739  -0.00008153  -0.00000676           30.51      -11.99       -0.99
  -0.00001629  -0.00000676   0.00034703           -2.40       -0.99       51.05

     kinetic stress (kbar)   2794.38     24.17     -1.54
                               24.17   2786.15     -0.54
                               -1.54     -0.54   2813.31

     local   stress (kbar)    288.12   -101.74      1.05
                             -101.74    322.33      0.53
                                1.05      0.53    124.28

     nonloc. stress (kbar)    889.31     18.62     -0.21
                               18.62    882.79     -0.15
                               -0.21     -0.15    923.42

     hartree stress (kbar)      1.36      1.38      0.02
                                1.38      0.98      0.01
                                0.02      0.01      4.46

     exc-cor stress (kbar)    118.71      1.56     -0.02
                                1.56    118.22     -0.01
                               -0.02     -0.01    121.11

     corecor stress (kbar)  -1222.41     -4.56      0.05
                               -4.56  -1220.91      0.05
                                0.05      0.05  -1229.25

     ewald   stress (kbar)  -2861.59     91.08     -1.74
                               91.08  -2901.56     -0.88
                               -1.74     -0.88  -2706.27

     hubbard stress (kbar)      0.00      0.00      0.00
                                0.00      0.00      0.00
                                0.00      0.00      0.00

     DFT-D   stress (kbar)      0.00      0.00      0.00
                                0.00      0.00      0.00
                                0.00      0.00      0.00

     XDM     stress (kbar)      0.00      0.00      0.00
                                0.00      0.00      0.00
                                0.00      0.00      0.00

     dft-nl  stress (kbar)      0.00      0.00      0.00
                                0.00      0.00      0.00
                                0.00      0.00      0.00

     TS-vdW  stress (kbar)      0.00      0.00      0.00
                                0.00      0.00      0.00
                                0.00      0.00      0.00



     Writing output data file temp/Be.save/

     init_run     :      3.67s CPU      3.69s WALL (       1 calls)
     electrons    :     18.09s CPU     18.25s WALL (       1 calls)
     forces       :      0.20s CPU      0.20s WALL (       1 calls)
     stress       :      0.68s CPU      0.69s WALL (       1 calls)

     Called by init_run:
     wfcinit      :      3.51s CPU      3.53s WALL (       1 calls)
     wfcinit:atom :      0.04s CPU      0.04s WALL (     512 calls)
     wfcinit:wfcr :      3.33s CPU      3.34s WALL (     512 calls)
     potinit      :      0.01s CPU      0.01s WALL (       1 calls)
     hinit0       :      0.12s CPU      0.12s WALL (       1 calls)

     Called by electrons:
     c_bands      :     16.33s CPU     16.47s WALL (       2 calls)
     sum_band     :      1.75s CPU      1.77s WALL (       2 calls)
     v_of_rho     :      0.01s CPU      0.01s WALL (       2 calls)
     v_h          :      0.00s CPU      0.00s WALL (       2 calls)
     v_xc         :      0.03s CPU      0.03s WALL (       4 calls)
     newd         :      0.01s CPU      0.01s WALL (       2 calls)
     mix_rho      :      0.00s CPU      0.00s WALL (       2 calls)

     Called by c_bands:
     init_us_2    :      0.27s CPU      0.27s WALL (    3584 calls)
     cegterg      :     16.13s CPU     16.26s WALL (    1024 calls)

     Called by sum_band:
     sum_band:wei :      0.00s CPU      0.00s WALL (       2 calls)
     sum_band:loo :      1.74s CPU      1.76s WALL (       2 calls)
     sum_band:buf :      0.00s CPU      0.00s WALL (    1024 calls)
     sum_band:ini :      0.08s CPU      0.08s WALL (    1024 calls)
     sum_band:cal :      0.06s CPU      0.06s WALL (    1024 calls)
     sum_band:bec :      0.00s CPU      0.00s WALL (    1024 calls)
     addusdens    :      0.00s CPU      0.00s WALL (       2 calls)
     addusd:skk   :      0.00s CPU      0.00s WALL (       2 calls)
     addusd:dgemm :      0.00s CPU      0.00s WALL (       2 calls)
     addusd:qvan2 :      0.00s CPU      0.00s WALL (       2 calls)

     Called by *egterg:
     cdiaghg      :      0.20s CPU      0.21s WALL (    6139 calls)
     cegterg:over :      0.20s CPU      0.21s WALL (    5627 calls)
     cegterg:upda :      0.09s CPU      0.10s WALL (    5627 calls)
     cegterg:last :      0.21s CPU      0.21s WALL (    4405 calls)
     h_psi        :     18.31s CPU     18.45s WALL (    7163 calls)
     s_psi        :      0.21s CPU      0.21s WALL (    7163 calls)
     g_psi        :      0.03s CPU      0.03s WALL (    5627 calls)

     Called by h_psi:
     h_psi:calbec :      0.36s CPU      0.36s WALL (    7163 calls)
     vloc_psi     :     17.69s CPU     17.83s WALL (    7163 calls)
     add_vuspsi   :      0.21s CPU      0.22s WALL (    7163 calls)

     General routines
     calbec       :      0.54s CPU      0.54s WALL (   10747 calls)
     fft          :      0.03s CPU      0.03s WALL (      48 calls)
     ffts         :      0.00s CPU      0.00s WALL (       2 calls)
     fftw         :     18.74s CPU     18.91s WALL (   51190 calls)

     Parallel routines

     PWSCF        :     22.89s CPU     23.09s WALL


   This run was terminated on:  16:25:16   7Sep2021            

=------------------------------------------------------------------------------=
   JOB DONE.
=------------------------------------------------------------------------------=
