
     Program PWSCF v.6.6 starts on  7Sep2021 at 16:22:18 

     This program is part of the open-source Quantum ESPRESSO suite
     for quantum simulation of materials; please cite
         "P. Giannozzi et al., J. Phys.:Condens. Matter 21 395502 (2009);
         "P. Giannozzi et al., J. Phys.:Condens. Matter 29 465901 (2017);
          URL http://www.quantum-espresso.org", 
     in publications or presentations arising from this work. More details at
     http://www.quantum-espresso.org/quote

     Parallel version (MPI), running on     1 processors

     MPI processes distributed on     1 nodes
     Fft bands division:     nmany     =       1
     Reading input from Be_snapshot1.pw.scf.in
Warning: card &CELL ignored
Warning: card / ignored

     Current dimensions of program PWSCF are:
     Max number of different atomic species (ntypx) = 10
     Max number of k-points (npk) =  40000
     Max angular momentum in pseudopotentials (lmaxx) =  3

     Subspace diagonalization in iterative solution of the eigenvalue problem:
     a serial algorithm will be used


     G-vector sticks info
     --------------------
     sticks:   dense  smooth     PW     G-vecs:    dense   smooth      PW
     Sum         199     199     85                 3669     3669     881



     bravais-lattice index     =            0
     lattice parameter (alat)  =       4.2705  a.u.
     unit-cell volume          =     106.5443 (a.u.)^3
     number of atoms/cell      =            2
     number of atomic types    =            1
     number of electrons       =         4.00
     number of Kohn-Sham states=            4
     kinetic-energy cutoff     =      40.0000  Ry
     charge density cutoff     =     160.0000  Ry
     convergence threshold     =      2.0E-02
     mixing beta               =       0.1000
     number of iterations used =            8  plain     mixing
     Exchange-correlation= PBE
                           (   1   4   3   4   0   0   0)

     celldm(1)=   4.270452  celldm(2)=   0.000000  celldm(3)=   0.000000
     celldm(4)=   0.000000  celldm(5)=   0.000000  celldm(6)=   0.000000

     crystal axes: (cart. coord. in units of alat)
               a(1) = (   1.000000   0.000000   0.000000 )  
               a(2) = (  -0.500000   0.866025   0.000000 )  
               a(3) = (   0.000000   0.000000   1.579714 )  

     reciprocal axes: (cart. coord. in units 2 pi/alat)
               b(1) = (  1.000000  0.577351 -0.000000 )  
               b(2) = (  0.000000  1.154701  0.000000 )  
               b(3) = (  0.000000 -0.000000  0.633026 )  


     PseudoPot. # 1 for Be read from file:
     /home/fiedlerl/tools/pslibrary/pbe/PSEUDOPOTENTIALS/Be.pbe-n-rrkjus_psl.1.0.0.UPF
     MD5 check sum: 734a25375992c446e1da9bf329ae4716
     Pseudo is Ultrasoft + core correction, Zval =  2.0
     Generated using "atomic" code by A. Dal Corso v.6.6
     Using radial grid of 1041 points,  4 beta functions with: 
                l(1) =   0
                l(2) =   0
                l(3) =   1
                l(4) =   1
     Q(r) pseudized with 0 coefficients 


     atomic species   valence    mass     pseudopotential
        Be             2.00     9.01218     Be( 1.00)

     No symmetry found


                                    s                        frac. trans.

      isym =  1     identity                                     

 cryst.   s( 1) = (     1          0          0      )
                  (     0          1          0      )
                  (     0          0          1      )

 cart.    s( 1) = (  1.0000000  0.0000000  0.0000000 )
                  (  0.0000000  1.0000000  0.0000000 )
                  (  0.0000000  0.0000000  1.0000000 )


   Cartesian axes

     site n.     atom                  positions (alat units)
         1           Be  tau(   1) = (   0.6426689   0.1347677   1.1851182  )
         2           Be  tau(   2) = (  -0.1426689   0.7312576   0.3945956  )

   Crystallographic axes

     site n.     atom                  positions (cryst. coord.)
         1           Be  tau(   1) = (  0.7204771  0.1556165  0.7502106  )
         2           Be  tau(   2) = (  0.2795230  0.8443839  0.2497893  )

     number of k points=   512  Fermi-Dirac smearing, width (Ry)=  0.0019
                       cart. coord. in units 2pi/alat
        k(    1) = (   0.0000000   0.0000000   0.0000000), wk =   0.0039062
        k(    2) = (   0.0000000   0.0000000   0.0791282), wk =   0.0039062
        k(    3) = (   0.0000000   0.0000000   0.1582565), wk =   0.0039062
        k(    4) = (   0.0000000   0.0000000   0.2373847), wk =   0.0039062
        k(    5) = (   0.0000000   0.0000000  -0.3165130), wk =   0.0039062
        k(    6) = (   0.0000000   0.0000000  -0.2373847), wk =   0.0039062
        k(    7) = (   0.0000000   0.0000000  -0.1582565), wk =   0.0039062
        k(    8) = (   0.0000000   0.0000000  -0.0791282), wk =   0.0039062
        k(    9) = (   0.0000000   0.1443376   0.0000000), wk =   0.0039062
        k(   10) = (   0.0000000   0.1443376   0.0791282), wk =   0.0039062
        k(   11) = (   0.0000000   0.1443376   0.1582565), wk =   0.0039062
        k(   12) = (   0.0000000   0.1443376   0.2373847), wk =   0.0039062
        k(   13) = (   0.0000000   0.1443376  -0.3165130), wk =   0.0039062
        k(   14) = (   0.0000000   0.1443376  -0.2373847), wk =   0.0039062
        k(   15) = (   0.0000000   0.1443376  -0.1582565), wk =   0.0039062
        k(   16) = (   0.0000000   0.1443376  -0.0791282), wk =   0.0039062
        k(   17) = (   0.0000000   0.2886753   0.0000000), wk =   0.0039062
        k(   18) = (   0.0000000   0.2886753   0.0791282), wk =   0.0039062
        k(   19) = (   0.0000000   0.2886753   0.1582565), wk =   0.0039062
        k(   20) = (   0.0000000   0.2886753   0.2373847), wk =   0.0039062
        k(   21) = (   0.0000000   0.2886753  -0.3165130), wk =   0.0039062
        k(   22) = (   0.0000000   0.2886753  -0.2373847), wk =   0.0039062
        k(   23) = (   0.0000000   0.2886753  -0.1582565), wk =   0.0039062
        k(   24) = (   0.0000000   0.2886753  -0.0791282), wk =   0.0039062
        k(   25) = (   0.0000000   0.4330129   0.0000000), wk =   0.0039062
        k(   26) = (   0.0000000   0.4330129   0.0791282), wk =   0.0039062
        k(   27) = (   0.0000000   0.4330129   0.1582565), wk =   0.0039062
        k(   28) = (   0.0000000   0.4330129   0.2373847), wk =   0.0039062
        k(   29) = (   0.0000000   0.4330129  -0.3165130), wk =   0.0039062
        k(   30) = (   0.0000000   0.4330129  -0.2373847), wk =   0.0039062
        k(   31) = (   0.0000000   0.4330129  -0.1582565), wk =   0.0039062
        k(   32) = (   0.0000000   0.4330129  -0.0791282), wk =   0.0039062
        k(   33) = (   0.0000000  -0.5773505   0.0000000), wk =   0.0039062
        k(   34) = (   0.0000000  -0.5773505   0.0791282), wk =   0.0039062
        k(   35) = (   0.0000000  -0.5773505   0.1582565), wk =   0.0039062
        k(   36) = (   0.0000000  -0.5773505   0.2373847), wk =   0.0039062
        k(   37) = (   0.0000000  -0.5773505  -0.3165130), wk =   0.0039062
        k(   38) = (   0.0000000  -0.5773505  -0.2373847), wk =   0.0039062
        k(   39) = (   0.0000000  -0.5773505  -0.1582565), wk =   0.0039062
        k(   40) = (   0.0000000  -0.5773505  -0.0791282), wk =   0.0039062
        k(   41) = (   0.0000000  -0.4330129   0.0000000), wk =   0.0039062
        k(   42) = (   0.0000000  -0.4330129   0.0791282), wk =   0.0039062
        k(   43) = (   0.0000000  -0.4330129   0.1582565), wk =   0.0039062
        k(   44) = (   0.0000000  -0.4330129   0.2373847), wk =   0.0039062
        k(   45) = (   0.0000000  -0.4330129  -0.3165130), wk =   0.0039062
        k(   46) = (   0.0000000  -0.4330129  -0.2373847), wk =   0.0039062
        k(   47) = (   0.0000000  -0.4330129  -0.1582565), wk =   0.0039062
        k(   48) = (   0.0000000  -0.4330129  -0.0791282), wk =   0.0039062
        k(   49) = (   0.0000000  -0.2886753   0.0000000), wk =   0.0039062
        k(   50) = (   0.0000000  -0.2886753   0.0791282), wk =   0.0039062
        k(   51) = (   0.0000000  -0.2886753   0.1582565), wk =   0.0039062
        k(   52) = (   0.0000000  -0.2886753   0.2373847), wk =   0.0039062
        k(   53) = (   0.0000000  -0.2886753  -0.3165130), wk =   0.0039062
        k(   54) = (   0.0000000  -0.2886753  -0.2373847), wk =   0.0039062
        k(   55) = (   0.0000000  -0.2886753  -0.1582565), wk =   0.0039062
        k(   56) = (   0.0000000  -0.2886753  -0.0791282), wk =   0.0039062
        k(   57) = (   0.0000000  -0.1443376   0.0000000), wk =   0.0039062
        k(   58) = (   0.0000000  -0.1443376   0.0791282), wk =   0.0039062
        k(   59) = (   0.0000000  -0.1443376   0.1582565), wk =   0.0039062
        k(   60) = (   0.0000000  -0.1443376   0.2373847), wk =   0.0039062
        k(   61) = (   0.0000000  -0.1443376  -0.3165130), wk =   0.0039062
        k(   62) = (   0.0000000  -0.1443376  -0.2373847), wk =   0.0039062
        k(   63) = (   0.0000000  -0.1443376  -0.1582565), wk =   0.0039062
        k(   64) = (   0.0000000  -0.1443376  -0.0791282), wk =   0.0039062
        k(   65) = (   0.1250000   0.0721688   0.0000000), wk =   0.0039062
        k(   66) = (   0.1250000   0.0721688   0.0791282), wk =   0.0039062
        k(   67) = (   0.1250000   0.0721688   0.1582565), wk =   0.0039062
        k(   68) = (   0.1250000   0.0721688   0.2373847), wk =   0.0039062
        k(   69) = (   0.1250000   0.0721688  -0.3165130), wk =   0.0039062
        k(   70) = (   0.1250000   0.0721688  -0.2373847), wk =   0.0039062
        k(   71) = (   0.1250000   0.0721688  -0.1582565), wk =   0.0039062
        k(   72) = (   0.1250000   0.0721688  -0.0791282), wk =   0.0039062
        k(   73) = (   0.1250000   0.2165065   0.0000000), wk =   0.0039062
        k(   74) = (   0.1250000   0.2165065   0.0791282), wk =   0.0039062
        k(   75) = (   0.1250000   0.2165065   0.1582565), wk =   0.0039062
        k(   76) = (   0.1250000   0.2165065   0.2373847), wk =   0.0039062
        k(   77) = (   0.1250000   0.2165065  -0.3165130), wk =   0.0039062
        k(   78) = (   0.1250000   0.2165065  -0.2373847), wk =   0.0039062
        k(   79) = (   0.1250000   0.2165065  -0.1582565), wk =   0.0039062
        k(   80) = (   0.1250000   0.2165065  -0.0791282), wk =   0.0039062
        k(   81) = (   0.1250000   0.3608441   0.0000000), wk =   0.0039062
        k(   82) = (   0.1250000   0.3608441   0.0791282), wk =   0.0039062
        k(   83) = (   0.1250000   0.3608441   0.1582565), wk =   0.0039062
        k(   84) = (   0.1250000   0.3608441   0.2373847), wk =   0.0039062
        k(   85) = (   0.1250000   0.3608441  -0.3165130), wk =   0.0039062
        k(   86) = (   0.1250000   0.3608441  -0.2373847), wk =   0.0039062
        k(   87) = (   0.1250000   0.3608441  -0.1582565), wk =   0.0039062
        k(   88) = (   0.1250000   0.3608441  -0.0791282), wk =   0.0039062
        k(   89) = (   0.1250000   0.5051817   0.0000000), wk =   0.0039062
        k(   90) = (   0.1250000   0.5051817   0.0791282), wk =   0.0039062
        k(   91) = (   0.1250000   0.5051817   0.1582565), wk =   0.0039062
        k(   92) = (   0.1250000   0.5051817   0.2373847), wk =   0.0039062
        k(   93) = (   0.1250000   0.5051817  -0.3165130), wk =   0.0039062
        k(   94) = (   0.1250000   0.5051817  -0.2373847), wk =   0.0039062
        k(   95) = (   0.1250000   0.5051817  -0.1582565), wk =   0.0039062
        k(   96) = (   0.1250000   0.5051817  -0.0791282), wk =   0.0039062
        k(   97) = (   0.1250000  -0.5051817   0.0000000), wk =   0.0039062
        k(   98) = (   0.1250000  -0.5051817   0.0791282), wk =   0.0039062
        k(   99) = (   0.1250000  -0.5051817   0.1582565), wk =   0.0039062
        k(  100) = (   0.1250000  -0.5051817   0.2373847), wk =   0.0039062
        k(  101) = (   0.1250000  -0.5051817  -0.3165130), wk =   0.0039062
        k(  102) = (   0.1250000  -0.5051817  -0.2373847), wk =   0.0039062
        k(  103) = (   0.1250000  -0.5051817  -0.1582565), wk =   0.0039062
        k(  104) = (   0.1250000  -0.5051817  -0.0791282), wk =   0.0039062
        k(  105) = (   0.1250000  -0.3608441   0.0000000), wk =   0.0039062
        k(  106) = (   0.1250000  -0.3608441   0.0791282), wk =   0.0039062
        k(  107) = (   0.1250000  -0.3608441   0.1582565), wk =   0.0039062
        k(  108) = (   0.1250000  -0.3608441   0.2373847), wk =   0.0039062
        k(  109) = (   0.1250000  -0.3608441  -0.3165130), wk =   0.0039062
        k(  110) = (   0.1250000  -0.3608441  -0.2373847), wk =   0.0039062
        k(  111) = (   0.1250000  -0.3608441  -0.1582565), wk =   0.0039062
        k(  112) = (   0.1250000  -0.3608441  -0.0791282), wk =   0.0039062
        k(  113) = (   0.1250000  -0.2165065   0.0000000), wk =   0.0039062
        k(  114) = (   0.1250000  -0.2165065   0.0791282), wk =   0.0039062
        k(  115) = (   0.1250000  -0.2165065   0.1582565), wk =   0.0039062
        k(  116) = (   0.1250000  -0.2165065   0.2373847), wk =   0.0039062
        k(  117) = (   0.1250000  -0.2165065  -0.3165130), wk =   0.0039062
        k(  118) = (   0.1250000  -0.2165065  -0.2373847), wk =   0.0039062
        k(  119) = (   0.1250000  -0.2165065  -0.1582565), wk =   0.0039062
        k(  120) = (   0.1250000  -0.2165065  -0.0791282), wk =   0.0039062
        k(  121) = (   0.1250000  -0.0721688   0.0000000), wk =   0.0039062
        k(  122) = (   0.1250000  -0.0721688   0.0791282), wk =   0.0039062
        k(  123) = (   0.1250000  -0.0721688   0.1582565), wk =   0.0039062
        k(  124) = (   0.1250000  -0.0721688   0.2373847), wk =   0.0039062
        k(  125) = (   0.1250000  -0.0721688  -0.3165130), wk =   0.0039062
        k(  126) = (   0.1250000  -0.0721688  -0.2373847), wk =   0.0039062
        k(  127) = (   0.1250000  -0.0721688  -0.1582565), wk =   0.0039062
        k(  128) = (   0.1250000  -0.0721688  -0.0791282), wk =   0.0039062
        k(  129) = (   0.2500000   0.1443376   0.0000000), wk =   0.0039062
        k(  130) = (   0.2500000   0.1443376   0.0791282), wk =   0.0039062
        k(  131) = (   0.2500000   0.1443376   0.1582565), wk =   0.0039062
        k(  132) = (   0.2500000   0.1443376   0.2373847), wk =   0.0039062
        k(  133) = (   0.2500000   0.1443376  -0.3165130), wk =   0.0039062
        k(  134) = (   0.2500000   0.1443376  -0.2373847), wk =   0.0039062
        k(  135) = (   0.2500000   0.1443376  -0.1582565), wk =   0.0039062
        k(  136) = (   0.2500000   0.1443376  -0.0791282), wk =   0.0039062
        k(  137) = (   0.2500000   0.2886753   0.0000000), wk =   0.0039062
        k(  138) = (   0.2500000   0.2886753   0.0791282), wk =   0.0039062
        k(  139) = (   0.2500000   0.2886753   0.1582565), wk =   0.0039062
        k(  140) = (   0.2500000   0.2886753   0.2373847), wk =   0.0039062
        k(  141) = (   0.2500000   0.2886753  -0.3165130), wk =   0.0039062
        k(  142) = (   0.2500000   0.2886753  -0.2373847), wk =   0.0039062
        k(  143) = (   0.2500000   0.2886753  -0.1582565), wk =   0.0039062
        k(  144) = (   0.2500000   0.2886753  -0.0791282), wk =   0.0039062
        k(  145) = (   0.2500000   0.4330129   0.0000000), wk =   0.0039062
        k(  146) = (   0.2500000   0.4330129   0.0791282), wk =   0.0039062
        k(  147) = (   0.2500000   0.4330129   0.1582565), wk =   0.0039062
        k(  148) = (   0.2500000   0.4330129   0.2373847), wk =   0.0039062
        k(  149) = (   0.2500000   0.4330129  -0.3165130), wk =   0.0039062
        k(  150) = (   0.2500000   0.4330129  -0.2373847), wk =   0.0039062
        k(  151) = (   0.2500000   0.4330129  -0.1582565), wk =   0.0039062
        k(  152) = (   0.2500000   0.4330129  -0.0791282), wk =   0.0039062
        k(  153) = (   0.2500000   0.5773505   0.0000000), wk =   0.0039062
        k(  154) = (   0.2500000   0.5773505   0.0791282), wk =   0.0039062
        k(  155) = (   0.2500000   0.5773505   0.1582565), wk =   0.0039062
        k(  156) = (   0.2500000   0.5773505   0.2373847), wk =   0.0039062
        k(  157) = (   0.2500000   0.5773505  -0.3165130), wk =   0.0039062
        k(  158) = (   0.2500000   0.5773505  -0.2373847), wk =   0.0039062
        k(  159) = (   0.2500000   0.5773505  -0.1582565), wk =   0.0039062
        k(  160) = (   0.2500000   0.5773505  -0.0791282), wk =   0.0039062
        k(  161) = (   0.2500000  -0.4330129   0.0000000), wk =   0.0039062
        k(  162) = (   0.2500000  -0.4330129   0.0791282), wk =   0.0039062
        k(  163) = (   0.2500000  -0.4330129   0.1582565), wk =   0.0039062
        k(  164) = (   0.2500000  -0.4330129   0.2373847), wk =   0.0039062
        k(  165) = (   0.2500000  -0.4330129  -0.3165130), wk =   0.0039062
        k(  166) = (   0.2500000  -0.4330129  -0.2373847), wk =   0.0039062
        k(  167) = (   0.2500000  -0.4330129  -0.1582565), wk =   0.0039062
        k(  168) = (   0.2500000  -0.4330129  -0.0791282), wk =   0.0039062
        k(  169) = (   0.2500000  -0.2886753   0.0000000), wk =   0.0039062
        k(  170) = (   0.2500000  -0.2886753   0.0791282), wk =   0.0039062
        k(  171) = (   0.2500000  -0.2886753   0.1582565), wk =   0.0039062
        k(  172) = (   0.2500000  -0.2886753   0.2373847), wk =   0.0039062
        k(  173) = (   0.2500000  -0.2886753  -0.3165130), wk =   0.0039062
        k(  174) = (   0.2500000  -0.2886753  -0.2373847), wk =   0.0039062
        k(  175) = (   0.2500000  -0.2886753  -0.1582565), wk =   0.0039062
        k(  176) = (   0.2500000  -0.2886753  -0.0791282), wk =   0.0039062
        k(  177) = (   0.2500000  -0.1443376   0.0000000), wk =   0.0039062
        k(  178) = (   0.2500000  -0.1443376   0.0791282), wk =   0.0039062
        k(  179) = (   0.2500000  -0.1443376   0.1582565), wk =   0.0039062
        k(  180) = (   0.2500000  -0.1443376   0.2373847), wk =   0.0039062
        k(  181) = (   0.2500000  -0.1443376  -0.3165130), wk =   0.0039062
        k(  182) = (   0.2500000  -0.1443376  -0.2373847), wk =   0.0039062
        k(  183) = (   0.2500000  -0.1443376  -0.1582565), wk =   0.0039062
        k(  184) = (   0.2500000  -0.1443376  -0.0791282), wk =   0.0039062
        k(  185) = (   0.2500000   0.0000000   0.0000000), wk =   0.0039062
        k(  186) = (   0.2500000   0.0000000   0.0791282), wk =   0.0039062
        k(  187) = (   0.2500000   0.0000000   0.1582565), wk =   0.0039062
        k(  188) = (   0.2500000   0.0000000   0.2373847), wk =   0.0039062
        k(  189) = (   0.2500000   0.0000000  -0.3165130), wk =   0.0039062
        k(  190) = (   0.2500000   0.0000000  -0.2373847), wk =   0.0039062
        k(  191) = (   0.2500000   0.0000000  -0.1582565), wk =   0.0039062
        k(  192) = (   0.2500000   0.0000000  -0.0791282), wk =   0.0039062
        k(  193) = (   0.3750000   0.2165065   0.0000000), wk =   0.0039062
        k(  194) = (   0.3750000   0.2165065   0.0791282), wk =   0.0039062
        k(  195) = (   0.3750000   0.2165065   0.1582565), wk =   0.0039062
        k(  196) = (   0.3750000   0.2165065   0.2373847), wk =   0.0039062
        k(  197) = (   0.3750000   0.2165065  -0.3165130), wk =   0.0039062
        k(  198) = (   0.3750000   0.2165065  -0.2373847), wk =   0.0039062
        k(  199) = (   0.3750000   0.2165065  -0.1582565), wk =   0.0039062
        k(  200) = (   0.3750000   0.2165065  -0.0791282), wk =   0.0039062
        k(  201) = (   0.3750000   0.3608441   0.0000000), wk =   0.0039062
        k(  202) = (   0.3750000   0.3608441   0.0791282), wk =   0.0039062
        k(  203) = (   0.3750000   0.3608441   0.1582565), wk =   0.0039062
        k(  204) = (   0.3750000   0.3608441   0.2373847), wk =   0.0039062
        k(  205) = (   0.3750000   0.3608441  -0.3165130), wk =   0.0039062
        k(  206) = (   0.3750000   0.3608441  -0.2373847), wk =   0.0039062
        k(  207) = (   0.3750000   0.3608441  -0.1582565), wk =   0.0039062
        k(  208) = (   0.3750000   0.3608441  -0.0791282), wk =   0.0039062
        k(  209) = (   0.3750000   0.5051817   0.0000000), wk =   0.0039062
        k(  210) = (   0.3750000   0.5051817   0.0791282), wk =   0.0039062
        k(  211) = (   0.3750000   0.5051817   0.1582565), wk =   0.0039062
        k(  212) = (   0.3750000   0.5051817   0.2373847), wk =   0.0039062
        k(  213) = (   0.3750000   0.5051817  -0.3165130), wk =   0.0039062
        k(  214) = (   0.3750000   0.5051817  -0.2373847), wk =   0.0039062
        k(  215) = (   0.3750000   0.5051817  -0.1582565), wk =   0.0039062
        k(  216) = (   0.3750000   0.5051817  -0.0791282), wk =   0.0039062
        k(  217) = (   0.3750000   0.6495194   0.0000000), wk =   0.0039062
        k(  218) = (   0.3750000   0.6495194   0.0791282), wk =   0.0039062
        k(  219) = (   0.3750000   0.6495194   0.1582565), wk =   0.0039062
        k(  220) = (   0.3750000   0.6495194   0.2373847), wk =   0.0039062
        k(  221) = (   0.3750000   0.6495194  -0.3165130), wk =   0.0039062
        k(  222) = (   0.3750000   0.6495194  -0.2373847), wk =   0.0039062
        k(  223) = (   0.3750000   0.6495194  -0.1582565), wk =   0.0039062
        k(  224) = (   0.3750000   0.6495194  -0.0791282), wk =   0.0039062
        k(  225) = (   0.3750000  -0.3608441   0.0000000), wk =   0.0039062
        k(  226) = (   0.3750000  -0.3608441   0.0791282), wk =   0.0039062
        k(  227) = (   0.3750000  -0.3608441   0.1582565), wk =   0.0039062
        k(  228) = (   0.3750000  -0.3608441   0.2373847), wk =   0.0039062
        k(  229) = (   0.3750000  -0.3608441  -0.3165130), wk =   0.0039062
        k(  230) = (   0.3750000  -0.3608441  -0.2373847), wk =   0.0039062
        k(  231) = (   0.3750000  -0.3608441  -0.1582565), wk =   0.0039062
        k(  232) = (   0.3750000  -0.3608441  -0.0791282), wk =   0.0039062
        k(  233) = (   0.3750000  -0.2165065   0.0000000), wk =   0.0039062
        k(  234) = (   0.3750000  -0.2165065   0.0791282), wk =   0.0039062
        k(  235) = (   0.3750000  -0.2165065   0.1582565), wk =   0.0039062
        k(  236) = (   0.3750000  -0.2165065   0.2373847), wk =   0.0039062
        k(  237) = (   0.3750000  -0.2165065  -0.3165130), wk =   0.0039062
        k(  238) = (   0.3750000  -0.2165065  -0.2373847), wk =   0.0039062
        k(  239) = (   0.3750000  -0.2165065  -0.1582565), wk =   0.0039062
        k(  240) = (   0.3750000  -0.2165065  -0.0791282), wk =   0.0039062
        k(  241) = (   0.3750000  -0.0721688   0.0000000), wk =   0.0039062
        k(  242) = (   0.3750000  -0.0721688   0.0791282), wk =   0.0039062
        k(  243) = (   0.3750000  -0.0721688   0.1582565), wk =   0.0039062
        k(  244) = (   0.3750000  -0.0721688   0.2373847), wk =   0.0039062
        k(  245) = (   0.3750000  -0.0721688  -0.3165130), wk =   0.0039062
        k(  246) = (   0.3750000  -0.0721688  -0.2373847), wk =   0.0039062
        k(  247) = (   0.3750000  -0.0721688  -0.1582565), wk =   0.0039062
        k(  248) = (   0.3750000  -0.0721688  -0.0791282), wk =   0.0039062
        k(  249) = (   0.3750000   0.0721688   0.0000000), wk =   0.0039062
        k(  250) = (   0.3750000   0.0721688   0.0791282), wk =   0.0039062
        k(  251) = (   0.3750000   0.0721688   0.1582565), wk =   0.0039062
        k(  252) = (   0.3750000   0.0721688   0.2373847), wk =   0.0039062
        k(  253) = (   0.3750000   0.0721688  -0.3165130), wk =   0.0039062
        k(  254) = (   0.3750000   0.0721688  -0.2373847), wk =   0.0039062
        k(  255) = (   0.3750000   0.0721688  -0.1582565), wk =   0.0039062
        k(  256) = (   0.3750000   0.0721688  -0.0791282), wk =   0.0039062
        k(  257) = (  -0.5000000  -0.2886753   0.0000000), wk =   0.0039062
        k(  258) = (  -0.5000000  -0.2886753   0.0791282), wk =   0.0039062
        k(  259) = (  -0.5000000  -0.2886753   0.1582565), wk =   0.0039062
        k(  260) = (  -0.5000000  -0.2886753   0.2373847), wk =   0.0039062
        k(  261) = (  -0.5000000  -0.2886753  -0.3165130), wk =   0.0039062
        k(  262) = (  -0.5000000  -0.2886753  -0.2373847), wk =   0.0039062
        k(  263) = (  -0.5000000  -0.2886753  -0.1582565), wk =   0.0039062
        k(  264) = (  -0.5000000  -0.2886753  -0.0791282), wk =   0.0039062
        k(  265) = (  -0.5000000  -0.1443376   0.0000000), wk =   0.0039062
        k(  266) = (  -0.5000000  -0.1443376   0.0791282), wk =   0.0039062
        k(  267) = (  -0.5000000  -0.1443376   0.1582565), wk =   0.0039062
        k(  268) = (  -0.5000000  -0.1443376   0.2373847), wk =   0.0039062
        k(  269) = (  -0.5000000  -0.1443376  -0.3165130), wk =   0.0039062
        k(  270) = (  -0.5000000  -0.1443376  -0.2373847), wk =   0.0039062
        k(  271) = (  -0.5000000  -0.1443376  -0.1582565), wk =   0.0039062
        k(  272) = (  -0.5000000  -0.1443376  -0.0791282), wk =   0.0039062
        k(  273) = (  -0.5000000   0.0000000   0.0000000), wk =   0.0039062
        k(  274) = (  -0.5000000   0.0000000   0.0791282), wk =   0.0039062
        k(  275) = (  -0.5000000   0.0000000   0.1582565), wk =   0.0039062
        k(  276) = (  -0.5000000   0.0000000   0.2373847), wk =   0.0039062
        k(  277) = (  -0.5000000   0.0000000  -0.3165130), wk =   0.0039062
        k(  278) = (  -0.5000000   0.0000000  -0.2373847), wk =   0.0039062
        k(  279) = (  -0.5000000   0.0000000  -0.1582565), wk =   0.0039062
        k(  280) = (  -0.5000000   0.0000000  -0.0791282), wk =   0.0039062
        k(  281) = (  -0.5000000   0.1443376   0.0000000), wk =   0.0039062
        k(  282) = (  -0.5000000   0.1443376   0.0791282), wk =   0.0039062
        k(  283) = (  -0.5000000   0.1443376   0.1582565), wk =   0.0039062
        k(  284) = (  -0.5000000   0.1443376   0.2373847), wk =   0.0039062
        k(  285) = (  -0.5000000   0.1443376  -0.3165130), wk =   0.0039062
        k(  286) = (  -0.5000000   0.1443376  -0.2373847), wk =   0.0039062
        k(  287) = (  -0.5000000   0.1443376  -0.1582565), wk =   0.0039062
        k(  288) = (  -0.5000000   0.1443376  -0.0791282), wk =   0.0039062
        k(  289) = (  -0.5000000  -0.8660258   0.0000000), wk =   0.0039062
        k(  290) = (  -0.5000000  -0.8660258   0.0791282), wk =   0.0039062
        k(  291) = (  -0.5000000  -0.8660258   0.1582565), wk =   0.0039062
        k(  292) = (  -0.5000000  -0.8660258   0.2373847), wk =   0.0039062
        k(  293) = (  -0.5000000  -0.8660258  -0.3165130), wk =   0.0039062
        k(  294) = (  -0.5000000  -0.8660258  -0.2373847), wk =   0.0039062
        k(  295) = (  -0.5000000  -0.8660258  -0.1582565), wk =   0.0039062
        k(  296) = (  -0.5000000  -0.8660258  -0.0791282), wk =   0.0039062
        k(  297) = (  -0.5000000  -0.7216882   0.0000000), wk =   0.0039062
        k(  298) = (  -0.5000000  -0.7216882   0.0791282), wk =   0.0039062
        k(  299) = (  -0.5000000  -0.7216882   0.1582565), wk =   0.0039062
        k(  300) = (  -0.5000000  -0.7216882   0.2373847), wk =   0.0039062
        k(  301) = (  -0.5000000  -0.7216882  -0.3165130), wk =   0.0039062
        k(  302) = (  -0.5000000  -0.7216882  -0.2373847), wk =   0.0039062
        k(  303) = (  -0.5000000  -0.7216882  -0.1582565), wk =   0.0039062
        k(  304) = (  -0.5000000  -0.7216882  -0.0791282), wk =   0.0039062
        k(  305) = (  -0.5000000  -0.5773505   0.0000000), wk =   0.0039062
        k(  306) = (  -0.5000000  -0.5773505   0.0791282), wk =   0.0039062
        k(  307) = (  -0.5000000  -0.5773505   0.1582565), wk =   0.0039062
        k(  308) = (  -0.5000000  -0.5773505   0.2373847), wk =   0.0039062
        k(  309) = (  -0.5000000  -0.5773505  -0.3165130), wk =   0.0039062
        k(  310) = (  -0.5000000  -0.5773505  -0.2373847), wk =   0.0039062
        k(  311) = (  -0.5000000  -0.5773505  -0.1582565), wk =   0.0039062
        k(  312) = (  -0.5000000  -0.5773505  -0.0791282), wk =   0.0039062
        k(  313) = (  -0.5000000  -0.4330129   0.0000000), wk =   0.0039062
        k(  314) = (  -0.5000000  -0.4330129   0.0791282), wk =   0.0039062
        k(  315) = (  -0.5000000  -0.4330129   0.1582565), wk =   0.0039062
        k(  316) = (  -0.5000000  -0.4330129   0.2373847), wk =   0.0039062
        k(  317) = (  -0.5000000  -0.4330129  -0.3165130), wk =   0.0039062
        k(  318) = (  -0.5000000  -0.4330129  -0.2373847), wk =   0.0039062
        k(  319) = (  -0.5000000  -0.4330129  -0.1582565), wk =   0.0039062
        k(  320) = (  -0.5000000  -0.4330129  -0.0791282), wk =   0.0039062
        k(  321) = (  -0.3750000  -0.2165065   0.0000000), wk =   0.0039062
        k(  322) = (  -0.3750000  -0.2165065   0.0791282), wk =   0.0039062
        k(  323) = (  -0.3750000  -0.2165065   0.1582565), wk =   0.0039062
        k(  324) = (  -0.3750000  -0.2165065   0.2373847), wk =   0.0039062
        k(  325) = (  -0.3750000  -0.2165065  -0.3165130), wk =   0.0039062
        k(  326) = (  -0.3750000  -0.2165065  -0.2373847), wk =   0.0039062
        k(  327) = (  -0.3750000  -0.2165065  -0.1582565), wk =   0.0039062
        k(  328) = (  -0.3750000  -0.2165065  -0.0791282), wk =   0.0039062
        k(  329) = (  -0.3750000  -0.0721688   0.0000000), wk =   0.0039062
        k(  330) = (  -0.3750000  -0.0721688   0.0791282), wk =   0.0039062
        k(  331) = (  -0.3750000  -0.0721688   0.1582565), wk =   0.0039062
        k(  332) = (  -0.3750000  -0.0721688   0.2373847), wk =   0.0039062
        k(  333) = (  -0.3750000  -0.0721688  -0.3165130), wk =   0.0039062
        k(  334) = (  -0.3750000  -0.0721688  -0.2373847), wk =   0.0039062
        k(  335) = (  -0.3750000  -0.0721688  -0.1582565), wk =   0.0039062
        k(  336) = (  -0.3750000  -0.0721688  -0.0791282), wk =   0.0039062
        k(  337) = (  -0.3750000   0.0721688   0.0000000), wk =   0.0039062
        k(  338) = (  -0.3750000   0.0721688   0.0791282), wk =   0.0039062
        k(  339) = (  -0.3750000   0.0721688   0.1582565), wk =   0.0039062
        k(  340) = (  -0.3750000   0.0721688   0.2373847), wk =   0.0039062
        k(  341) = (  -0.3750000   0.0721688  -0.3165130), wk =   0.0039062
        k(  342) = (  -0.3750000   0.0721688  -0.2373847), wk =   0.0039062
        k(  343) = (  -0.3750000   0.0721688  -0.1582565), wk =   0.0039062
        k(  344) = (  -0.3750000   0.0721688  -0.0791282), wk =   0.0039062
        k(  345) = (  -0.3750000   0.2165065   0.0000000), wk =   0.0039062
        k(  346) = (  -0.3750000   0.2165065   0.0791282), wk =   0.0039062
        k(  347) = (  -0.3750000   0.2165065   0.1582565), wk =   0.0039062
        k(  348) = (  -0.3750000   0.2165065   0.2373847), wk =   0.0039062
        k(  349) = (  -0.3750000   0.2165065  -0.3165130), wk =   0.0039062
        k(  350) = (  -0.3750000   0.2165065  -0.2373847), wk =   0.0039062
        k(  351) = (  -0.3750000   0.2165065  -0.1582565), wk =   0.0039062
        k(  352) = (  -0.3750000   0.2165065  -0.0791282), wk =   0.0039062
        k(  353) = (  -0.3750000  -0.7938570   0.0000000), wk =   0.0039062
        k(  354) = (  -0.3750000  -0.7938570   0.0791282), wk =   0.0039062
        k(  355) = (  -0.3750000  -0.7938570   0.1582565), wk =   0.0039062
        k(  356) = (  -0.3750000  -0.7938570   0.2373847), wk =   0.0039062
        k(  357) = (  -0.3750000  -0.7938570  -0.3165130), wk =   0.0039062
        k(  358) = (  -0.3750000  -0.7938570  -0.2373847), wk =   0.0039062
        k(  359) = (  -0.3750000  -0.7938570  -0.1582565), wk =   0.0039062
        k(  360) = (  -0.3750000  -0.7938570  -0.0791282), wk =   0.0039062
        k(  361) = (  -0.3750000  -0.6495194   0.0000000), wk =   0.0039062
        k(  362) = (  -0.3750000  -0.6495194   0.0791282), wk =   0.0039062
        k(  363) = (  -0.3750000  -0.6495194   0.1582565), wk =   0.0039062
        k(  364) = (  -0.3750000  -0.6495194   0.2373847), wk =   0.0039062
        k(  365) = (  -0.3750000  -0.6495194  -0.3165130), wk =   0.0039062
        k(  366) = (  -0.3750000  -0.6495194  -0.2373847), wk =   0.0039062
        k(  367) = (  -0.3750000  -0.6495194  -0.1582565), wk =   0.0039062
        k(  368) = (  -0.3750000  -0.6495194  -0.0791282), wk =   0.0039062
        k(  369) = (  -0.3750000  -0.5051817   0.0000000), wk =   0.0039062
        k(  370) = (  -0.3750000  -0.5051817   0.0791282), wk =   0.0039062
        k(  371) = (  -0.3750000  -0.5051817   0.1582565), wk =   0.0039062
        k(  372) = (  -0.3750000  -0.5051817   0.2373847), wk =   0.0039062
        k(  373) = (  -0.3750000  -0.5051817  -0.3165130), wk =   0.0039062
        k(  374) = (  -0.3750000  -0.5051817  -0.2373847), wk =   0.0039062
        k(  375) = (  -0.3750000  -0.5051817  -0.1582565), wk =   0.0039062
        k(  376) = (  -0.3750000  -0.5051817  -0.0791282), wk =   0.0039062
        k(  377) = (  -0.3750000  -0.3608441   0.0000000), wk =   0.0039062
        k(  378) = (  -0.3750000  -0.3608441   0.0791282), wk =   0.0039062
        k(  379) = (  -0.3750000  -0.3608441   0.1582565), wk =   0.0039062
        k(  380) = (  -0.3750000  -0.3608441   0.2373847), wk =   0.0039062
        k(  381) = (  -0.3750000  -0.3608441  -0.3165130), wk =   0.0039062
        k(  382) = (  -0.3750000  -0.3608441  -0.2373847), wk =   0.0039062
        k(  383) = (  -0.3750000  -0.3608441  -0.1582565), wk =   0.0039062
        k(  384) = (  -0.3750000  -0.3608441  -0.0791282), wk =   0.0039062
        k(  385) = (  -0.2500000  -0.1443376   0.0000000), wk =   0.0039062
        k(  386) = (  -0.2500000  -0.1443376   0.0791282), wk =   0.0039062
        k(  387) = (  -0.2500000  -0.1443376   0.1582565), wk =   0.0039062
        k(  388) = (  -0.2500000  -0.1443376   0.2373847), wk =   0.0039062
        k(  389) = (  -0.2500000  -0.1443376  -0.3165130), wk =   0.0039062
        k(  390) = (  -0.2500000  -0.1443376  -0.2373847), wk =   0.0039062
        k(  391) = (  -0.2500000  -0.1443376  -0.1582565), wk =   0.0039062
        k(  392) = (  -0.2500000  -0.1443376  -0.0791282), wk =   0.0039062
        k(  393) = (  -0.2500000   0.0000000   0.0000000), wk =   0.0039062
        k(  394) = (  -0.2500000   0.0000000   0.0791282), wk =   0.0039062
        k(  395) = (  -0.2500000   0.0000000   0.1582565), wk =   0.0039062
        k(  396) = (  -0.2500000   0.0000000   0.2373847), wk =   0.0039062
        k(  397) = (  -0.2500000   0.0000000  -0.3165130), wk =   0.0039062
        k(  398) = (  -0.2500000   0.0000000  -0.2373847), wk =   0.0039062
        k(  399) = (  -0.2500000   0.0000000  -0.1582565), wk =   0.0039062
        k(  400) = (  -0.2500000   0.0000000  -0.0791282), wk =   0.0039062
        k(  401) = (  -0.2500000   0.1443376   0.0000000), wk =   0.0039062
        k(  402) = (  -0.2500000   0.1443376   0.0791282), wk =   0.0039062
        k(  403) = (  -0.2500000   0.1443376   0.1582565), wk =   0.0039062
        k(  404) = (  -0.2500000   0.1443376   0.2373847), wk =   0.0039062
        k(  405) = (  -0.2500000   0.1443376  -0.3165130), wk =   0.0039062
        k(  406) = (  -0.2500000   0.1443376  -0.2373847), wk =   0.0039062
        k(  407) = (  -0.2500000   0.1443376  -0.1582565), wk =   0.0039062
        k(  408) = (  -0.2500000   0.1443376  -0.0791282), wk =   0.0039062
        k(  409) = (  -0.2500000   0.2886753   0.0000000), wk =   0.0039062
        k(  410) = (  -0.2500000   0.2886753   0.0791282), wk =   0.0039062
        k(  411) = (  -0.2500000   0.2886753   0.1582565), wk =   0.0039062
        k(  412) = (  -0.2500000   0.2886753   0.2373847), wk =   0.0039062
        k(  413) = (  -0.2500000   0.2886753  -0.3165130), wk =   0.0039062
        k(  414) = (  -0.2500000   0.2886753  -0.2373847), wk =   0.0039062
        k(  415) = (  -0.2500000   0.2886753  -0.1582565), wk =   0.0039062
        k(  416) = (  -0.2500000   0.2886753  -0.0791282), wk =   0.0039062
        k(  417) = (  -0.2500000  -0.7216882   0.0000000), wk =   0.0039062
        k(  418) = (  -0.2500000  -0.7216882   0.0791282), wk =   0.0039062
        k(  419) = (  -0.2500000  -0.7216882   0.1582565), wk =   0.0039062
        k(  420) = (  -0.2500000  -0.7216882   0.2373847), wk =   0.0039062
        k(  421) = (  -0.2500000  -0.7216882  -0.3165130), wk =   0.0039062
        k(  422) = (  -0.2500000  -0.7216882  -0.2373847), wk =   0.0039062
        k(  423) = (  -0.2500000  -0.7216882  -0.1582565), wk =   0.0039062
        k(  424) = (  -0.2500000  -0.7216882  -0.0791282), wk =   0.0039062
        k(  425) = (  -0.2500000  -0.5773505   0.0000000), wk =   0.0039062
        k(  426) = (  -0.2500000  -0.5773505   0.0791282), wk =   0.0039062
        k(  427) = (  -0.2500000  -0.5773505   0.1582565), wk =   0.0039062
        k(  428) = (  -0.2500000  -0.5773505   0.2373847), wk =   0.0039062
        k(  429) = (  -0.2500000  -0.5773505  -0.3165130), wk =   0.0039062
        k(  430) = (  -0.2500000  -0.5773505  -0.2373847), wk =   0.0039062
        k(  431) = (  -0.2500000  -0.5773505  -0.1582565), wk =   0.0039062
        k(  432) = (  -0.2500000  -0.5773505  -0.0791282), wk =   0.0039062
        k(  433) = (  -0.2500000  -0.4330129   0.0000000), wk =   0.0039062
        k(  434) = (  -0.2500000  -0.4330129   0.0791282), wk =   0.0039062
        k(  435) = (  -0.2500000  -0.4330129   0.1582565), wk =   0.0039062
        k(  436) = (  -0.2500000  -0.4330129   0.2373847), wk =   0.0039062
        k(  437) = (  -0.2500000  -0.4330129  -0.3165130), wk =   0.0039062
        k(  438) = (  -0.2500000  -0.4330129  -0.2373847), wk =   0.0039062
        k(  439) = (  -0.2500000  -0.4330129  -0.1582565), wk =   0.0039062
        k(  440) = (  -0.2500000  -0.4330129  -0.0791282), wk =   0.0039062
        k(  441) = (  -0.2500000  -0.2886753   0.0000000), wk =   0.0039062
        k(  442) = (  -0.2500000  -0.2886753   0.0791282), wk =   0.0039062
        k(  443) = (  -0.2500000  -0.2886753   0.1582565), wk =   0.0039062
        k(  444) = (  -0.2500000  -0.2886753   0.2373847), wk =   0.0039062
        k(  445) = (  -0.2500000  -0.2886753  -0.3165130), wk =   0.0039062
        k(  446) = (  -0.2500000  -0.2886753  -0.2373847), wk =   0.0039062
        k(  447) = (  -0.2500000  -0.2886753  -0.1582565), wk =   0.0039062
        k(  448) = (  -0.2500000  -0.2886753  -0.0791282), wk =   0.0039062
        k(  449) = (  -0.1250000  -0.0721688   0.0000000), wk =   0.0039062
        k(  450) = (  -0.1250000  -0.0721688   0.0791282), wk =   0.0039062
        k(  451) = (  -0.1250000  -0.0721688   0.1582565), wk =   0.0039062
        k(  452) = (  -0.1250000  -0.0721688   0.2373847), wk =   0.0039062
        k(  453) = (  -0.1250000  -0.0721688  -0.3165130), wk =   0.0039062
        k(  454) = (  -0.1250000  -0.0721688  -0.2373847), wk =   0.0039062
        k(  455) = (  -0.1250000  -0.0721688  -0.1582565), wk =   0.0039062
        k(  456) = (  -0.1250000  -0.0721688  -0.0791282), wk =   0.0039062
        k(  457) = (  -0.1250000   0.0721688   0.0000000), wk =   0.0039062
        k(  458) = (  -0.1250000   0.0721688   0.0791282), wk =   0.0039062
        k(  459) = (  -0.1250000   0.0721688   0.1582565), wk =   0.0039062
        k(  460) = (  -0.1250000   0.0721688   0.2373847), wk =   0.0039062
        k(  461) = (  -0.1250000   0.0721688  -0.3165130), wk =   0.0039062
        k(  462) = (  -0.1250000   0.0721688  -0.2373847), wk =   0.0039062
        k(  463) = (  -0.1250000   0.0721688  -0.1582565), wk =   0.0039062
        k(  464) = (  -0.1250000   0.0721688  -0.0791282), wk =   0.0039062
        k(  465) = (  -0.1250000   0.2165065   0.0000000), wk =   0.0039062
        k(  466) = (  -0.1250000   0.2165065   0.0791282), wk =   0.0039062
        k(  467) = (  -0.1250000   0.2165065   0.1582565), wk =   0.0039062
        k(  468) = (  -0.1250000   0.2165065   0.2373847), wk =   0.0039062
        k(  469) = (  -0.1250000   0.2165065  -0.3165130), wk =   0.0039062
        k(  470) = (  -0.1250000   0.2165065  -0.2373847), wk =   0.0039062
        k(  471) = (  -0.1250000   0.2165065  -0.1582565), wk =   0.0039062
        k(  472) = (  -0.1250000   0.2165065  -0.0791282), wk =   0.0039062
        k(  473) = (  -0.1250000   0.3608441   0.0000000), wk =   0.0039062
        k(  474) = (  -0.1250000   0.3608441   0.0791282), wk =   0.0039062
        k(  475) = (  -0.1250000   0.3608441   0.1582565), wk =   0.0039062
        k(  476) = (  -0.1250000   0.3608441   0.2373847), wk =   0.0039062
        k(  477) = (  -0.1250000   0.3608441  -0.3165130), wk =   0.0039062
        k(  478) = (  -0.1250000   0.3608441  -0.2373847), wk =   0.0039062
        k(  479) = (  -0.1250000   0.3608441  -0.1582565), wk =   0.0039062
        k(  480) = (  -0.1250000   0.3608441  -0.0791282), wk =   0.0039062
        k(  481) = (  -0.1250000  -0.6495194   0.0000000), wk =   0.0039062
        k(  482) = (  -0.1250000  -0.6495194   0.0791282), wk =   0.0039062
        k(  483) = (  -0.1250000  -0.6495194   0.1582565), wk =   0.0039062
        k(  484) = (  -0.1250000  -0.6495194   0.2373847), wk =   0.0039062
        k(  485) = (  -0.1250000  -0.6495194  -0.3165130), wk =   0.0039062
        k(  486) = (  -0.1250000  -0.6495194  -0.2373847), wk =   0.0039062
        k(  487) = (  -0.1250000  -0.6495194  -0.1582565), wk =   0.0039062
        k(  488) = (  -0.1250000  -0.6495194  -0.0791282), wk =   0.0039062
        k(  489) = (  -0.1250000  -0.5051817   0.0000000), wk =   0.0039062
        k(  490) = (  -0.1250000  -0.5051817   0.0791282), wk =   0.0039062
        k(  491) = (  -0.1250000  -0.5051817   0.1582565), wk =   0.0039062
        k(  492) = (  -0.1250000  -0.5051817   0.2373847), wk =   0.0039062
        k(  493) = (  -0.1250000  -0.5051817  -0.3165130), wk =   0.0039062
        k(  494) = (  -0.1250000  -0.5051817  -0.2373847), wk =   0.0039062
        k(  495) = (  -0.1250000  -0.5051817  -0.1582565), wk =   0.0039062
        k(  496) = (  -0.1250000  -0.5051817  -0.0791282), wk =   0.0039062
        k(  497) = (  -0.1250000  -0.3608441   0.0000000), wk =   0.0039062
        k(  498) = (  -0.1250000  -0.3608441   0.0791282), wk =   0.0039062
        k(  499) = (  -0.1250000  -0.3608441   0.1582565), wk =   0.0039062
        k(  500) = (  -0.1250000  -0.3608441   0.2373847), wk =   0.0039062
        k(  501) = (  -0.1250000  -0.3608441  -0.3165130), wk =   0.0039062
        k(  502) = (  -0.1250000  -0.3608441  -0.2373847), wk =   0.0039062
        k(  503) = (  -0.1250000  -0.3608441  -0.1582565), wk =   0.0039062
        k(  504) = (  -0.1250000  -0.3608441  -0.0791282), wk =   0.0039062
        k(  505) = (  -0.1250000  -0.2165065   0.0000000), wk =   0.0039062
        k(  506) = (  -0.1250000  -0.2165065   0.0791282), wk =   0.0039062
        k(  507) = (  -0.1250000  -0.2165065   0.1582565), wk =   0.0039062
        k(  508) = (  -0.1250000  -0.2165065   0.2373847), wk =   0.0039062
        k(  509) = (  -0.1250000  -0.2165065  -0.3165130), wk =   0.0039062
        k(  510) = (  -0.1250000  -0.2165065  -0.2373847), wk =   0.0039062
        k(  511) = (  -0.1250000  -0.2165065  -0.1582565), wk =   0.0039062
        k(  512) = (  -0.1250000  -0.2165065  -0.0791282), wk =   0.0039062

                       cryst. coord.
        k(    1) = (   0.0000000   0.0000000   0.0000000), wk =   0.0039062
        k(    2) = (   0.0000000   0.0000000   0.1250000), wk =   0.0039062
        k(    3) = (   0.0000000   0.0000000   0.2500000), wk =   0.0039062
        k(    4) = (   0.0000000   0.0000000   0.3750000), wk =   0.0039062
        k(    5) = (   0.0000000   0.0000000  -0.5000000), wk =   0.0039062
        k(    6) = (   0.0000000   0.0000000  -0.3750000), wk =   0.0039062
        k(    7) = (   0.0000000   0.0000000  -0.2500000), wk =   0.0039062
        k(    8) = (   0.0000000   0.0000000  -0.1250000), wk =   0.0039062
        k(    9) = (   0.0000000   0.1250000   0.0000000), wk =   0.0039062
        k(   10) = (   0.0000000   0.1250000   0.1250000), wk =   0.0039062
        k(   11) = (   0.0000000   0.1250000   0.2500000), wk =   0.0039062
        k(   12) = (   0.0000000   0.1250000   0.3750000), wk =   0.0039062
        k(   13) = (   0.0000000   0.1250000  -0.5000000), wk =   0.0039062
        k(   14) = (   0.0000000   0.1250000  -0.3750000), wk =   0.0039062
        k(   15) = (   0.0000000   0.1250000  -0.2500000), wk =   0.0039062
        k(   16) = (   0.0000000   0.1250000  -0.1250000), wk =   0.0039062
        k(   17) = (   0.0000000   0.2500000   0.0000000), wk =   0.0039062
        k(   18) = (   0.0000000   0.2500000   0.1250000), wk =   0.0039062
        k(   19) = (   0.0000000   0.2500000   0.2500000), wk =   0.0039062
        k(   20) = (   0.0000000   0.2500000   0.3750000), wk =   0.0039062
        k(   21) = (   0.0000000   0.2500000  -0.5000000), wk =   0.0039062
        k(   22) = (   0.0000000   0.2500000  -0.3750000), wk =   0.0039062
        k(   23) = (   0.0000000   0.2500000  -0.2500000), wk =   0.0039062
        k(   24) = (   0.0000000   0.2500000  -0.1250000), wk =   0.0039062
        k(   25) = (   0.0000000   0.3750000   0.0000000), wk =   0.0039062
        k(   26) = (   0.0000000   0.3750000   0.1250000), wk =   0.0039062
        k(   27) = (   0.0000000   0.3750000   0.2500000), wk =   0.0039062
        k(   28) = (   0.0000000   0.3750000   0.3750000), wk =   0.0039062
        k(   29) = (   0.0000000   0.3750000  -0.5000000), wk =   0.0039062
        k(   30) = (   0.0000000   0.3750000  -0.3750000), wk =   0.0039062
        k(   31) = (   0.0000000   0.3750000  -0.2500000), wk =   0.0039062
        k(   32) = (   0.0000000   0.3750000  -0.1250000), wk =   0.0039062
        k(   33) = (   0.0000000  -0.5000000   0.0000000), wk =   0.0039062
        k(   34) = (   0.0000000  -0.5000000   0.1250000), wk =   0.0039062
        k(   35) = (   0.0000000  -0.5000000   0.2500000), wk =   0.0039062
        k(   36) = (   0.0000000  -0.5000000   0.3750000), wk =   0.0039062
        k(   37) = (   0.0000000  -0.5000000  -0.5000000), wk =   0.0039062
        k(   38) = (   0.0000000  -0.5000000  -0.3750000), wk =   0.0039062
        k(   39) = (   0.0000000  -0.5000000  -0.2500000), wk =   0.0039062
        k(   40) = (   0.0000000  -0.5000000  -0.1250000), wk =   0.0039062
        k(   41) = (   0.0000000  -0.3750000   0.0000000), wk =   0.0039062
        k(   42) = (   0.0000000  -0.3750000   0.1250000), wk =   0.0039062
        k(   43) = (   0.0000000  -0.3750000   0.2500000), wk =   0.0039062
        k(   44) = (   0.0000000  -0.3750000   0.3750000), wk =   0.0039062
        k(   45) = (   0.0000000  -0.3750000  -0.5000000), wk =   0.0039062
        k(   46) = (   0.0000000  -0.3750000  -0.3750000), wk =   0.0039062
        k(   47) = (   0.0000000  -0.3750000  -0.2500000), wk =   0.0039062
        k(   48) = (   0.0000000  -0.3750000  -0.1250000), wk =   0.0039062
        k(   49) = (   0.0000000  -0.2500000   0.0000000), wk =   0.0039062
        k(   50) = (   0.0000000  -0.2500000   0.1250000), wk =   0.0039062
        k(   51) = (   0.0000000  -0.2500000   0.2500000), wk =   0.0039062
        k(   52) = (   0.0000000  -0.2500000   0.3750000), wk =   0.0039062
        k(   53) = (   0.0000000  -0.2500000  -0.5000000), wk =   0.0039062
        k(   54) = (   0.0000000  -0.2500000  -0.3750000), wk =   0.0039062
        k(   55) = (   0.0000000  -0.2500000  -0.2500000), wk =   0.0039062
        k(   56) = (   0.0000000  -0.2500000  -0.1250000), wk =   0.0039062
        k(   57) = (   0.0000000  -0.1250000   0.0000000), wk =   0.0039062
        k(   58) = (   0.0000000  -0.1250000   0.1250000), wk =   0.0039062
        k(   59) = (   0.0000000  -0.1250000   0.2500000), wk =   0.0039062
        k(   60) = (   0.0000000  -0.1250000   0.3750000), wk =   0.0039062
        k(   61) = (   0.0000000  -0.1250000  -0.5000000), wk =   0.0039062
        k(   62) = (   0.0000000  -0.1250000  -0.3750000), wk =   0.0039062
        k(   63) = (   0.0000000  -0.1250000  -0.2500000), wk =   0.0039062
        k(   64) = (   0.0000000  -0.1250000  -0.1250000), wk =   0.0039062
        k(   65) = (   0.1250000   0.0000000   0.0000000), wk =   0.0039062
        k(   66) = (   0.1250000   0.0000000   0.1250000), wk =   0.0039062
        k(   67) = (   0.1250000   0.0000000   0.2500000), wk =   0.0039062
        k(   68) = (   0.1250000   0.0000000   0.3750000), wk =   0.0039062
        k(   69) = (   0.1250000   0.0000000  -0.5000000), wk =   0.0039062
        k(   70) = (   0.1250000   0.0000000  -0.3750000), wk =   0.0039062
        k(   71) = (   0.1250000   0.0000000  -0.2500000), wk =   0.0039062
        k(   72) = (   0.1250000   0.0000000  -0.1250000), wk =   0.0039062
        k(   73) = (   0.1250000   0.1250000   0.0000000), wk =   0.0039062
        k(   74) = (   0.1250000   0.1250000   0.1250000), wk =   0.0039062
        k(   75) = (   0.1250000   0.1250000   0.2500000), wk =   0.0039062
        k(   76) = (   0.1250000   0.1250000   0.3750000), wk =   0.0039062
        k(   77) = (   0.1250000   0.1250000  -0.5000000), wk =   0.0039062
        k(   78) = (   0.1250000   0.1250000  -0.3750000), wk =   0.0039062
        k(   79) = (   0.1250000   0.1250000  -0.2500000), wk =   0.0039062
        k(   80) = (   0.1250000   0.1250000  -0.1250000), wk =   0.0039062
        k(   81) = (   0.1250000   0.2500000   0.0000000), wk =   0.0039062
        k(   82) = (   0.1250000   0.2500000   0.1250000), wk =   0.0039062
        k(   83) = (   0.1250000   0.2500000   0.2500000), wk =   0.0039062
        k(   84) = (   0.1250000   0.2500000   0.3750000), wk =   0.0039062
        k(   85) = (   0.1250000   0.2500000  -0.5000000), wk =   0.0039062
        k(   86) = (   0.1250000   0.2500000  -0.3750000), wk =   0.0039062
        k(   87) = (   0.1250000   0.2500000  -0.2500000), wk =   0.0039062
        k(   88) = (   0.1250000   0.2500000  -0.1250000), wk =   0.0039062
        k(   89) = (   0.1250000   0.3750000   0.0000000), wk =   0.0039062
        k(   90) = (   0.1250000   0.3750000   0.1250000), wk =   0.0039062
        k(   91) = (   0.1250000   0.3750000   0.2500000), wk =   0.0039062
        k(   92) = (   0.1250000   0.3750000   0.3750000), wk =   0.0039062
        k(   93) = (   0.1250000   0.3750000  -0.5000000), wk =   0.0039062
        k(   94) = (   0.1250000   0.3750000  -0.3750000), wk =   0.0039062
        k(   95) = (   0.1250000   0.3750000  -0.2500000), wk =   0.0039062
        k(   96) = (   0.1250000   0.3750000  -0.1250000), wk =   0.0039062
        k(   97) = (   0.1250000  -0.5000000   0.0000000), wk =   0.0039062
        k(   98) = (   0.1250000  -0.5000000   0.1250000), wk =   0.0039062
        k(   99) = (   0.1250000  -0.5000000   0.2500000), wk =   0.0039062
        k(  100) = (   0.1250000  -0.5000000   0.3750000), wk =   0.0039062
        k(  101) = (   0.1250000  -0.5000000  -0.5000000), wk =   0.0039062
        k(  102) = (   0.1250000  -0.5000000  -0.3750000), wk =   0.0039062
        k(  103) = (   0.1250000  -0.5000000  -0.2500000), wk =   0.0039062
        k(  104) = (   0.1250000  -0.5000000  -0.1250000), wk =   0.0039062
        k(  105) = (   0.1250000  -0.3750000   0.0000000), wk =   0.0039062
        k(  106) = (   0.1250000  -0.3750000   0.1250000), wk =   0.0039062
        k(  107) = (   0.1250000  -0.3750000   0.2500000), wk =   0.0039062
        k(  108) = (   0.1250000  -0.3750000   0.3750000), wk =   0.0039062
        k(  109) = (   0.1250000  -0.3750000  -0.5000000), wk =   0.0039062
        k(  110) = (   0.1250000  -0.3750000  -0.3750000), wk =   0.0039062
        k(  111) = (   0.1250000  -0.3750000  -0.2500000), wk =   0.0039062
        k(  112) = (   0.1250000  -0.3750000  -0.1250000), wk =   0.0039062
        k(  113) = (   0.1250000  -0.2500000   0.0000000), wk =   0.0039062
        k(  114) = (   0.1250000  -0.2500000   0.1250000), wk =   0.0039062
        k(  115) = (   0.1250000  -0.2500000   0.2500000), wk =   0.0039062
        k(  116) = (   0.1250000  -0.2500000   0.3750000), wk =   0.0039062
        k(  117) = (   0.1250000  -0.2500000  -0.5000000), wk =   0.0039062
        k(  118) = (   0.1250000  -0.2500000  -0.3750000), wk =   0.0039062
        k(  119) = (   0.1250000  -0.2500000  -0.2500000), wk =   0.0039062
        k(  120) = (   0.1250000  -0.2500000  -0.1250000), wk =   0.0039062
        k(  121) = (   0.1250000  -0.1250000   0.0000000), wk =   0.0039062
        k(  122) = (   0.1250000  -0.1250000   0.1250000), wk =   0.0039062
        k(  123) = (   0.1250000  -0.1250000   0.2500000), wk =   0.0039062
        k(  124) = (   0.1250000  -0.1250000   0.3750000), wk =   0.0039062
        k(  125) = (   0.1250000  -0.1250000  -0.5000000), wk =   0.0039062
        k(  126) = (   0.1250000  -0.1250000  -0.3750000), wk =   0.0039062
        k(  127) = (   0.1250000  -0.1250000  -0.2500000), wk =   0.0039062
        k(  128) = (   0.1250000  -0.1250000  -0.1250000), wk =   0.0039062
        k(  129) = (   0.2500000   0.0000000   0.0000000), wk =   0.0039062
        k(  130) = (   0.2500000   0.0000000   0.1250000), wk =   0.0039062
        k(  131) = (   0.2500000   0.0000000   0.2500000), wk =   0.0039062
        k(  132) = (   0.2500000   0.0000000   0.3750000), wk =   0.0039062
        k(  133) = (   0.2500000   0.0000000  -0.5000000), wk =   0.0039062
        k(  134) = (   0.2500000   0.0000000  -0.3750000), wk =   0.0039062
        k(  135) = (   0.2500000   0.0000000  -0.2500000), wk =   0.0039062
        k(  136) = (   0.2500000   0.0000000  -0.1250000), wk =   0.0039062
        k(  137) = (   0.2500000   0.1250000   0.0000000), wk =   0.0039062
        k(  138) = (   0.2500000   0.1250000   0.1250000), wk =   0.0039062
        k(  139) = (   0.2500000   0.1250000   0.2500000), wk =   0.0039062
        k(  140) = (   0.2500000   0.1250000   0.3750000), wk =   0.0039062
        k(  141) = (   0.2500000   0.1250000  -0.5000000), wk =   0.0039062
        k(  142) = (   0.2500000   0.1250000  -0.3750000), wk =   0.0039062
        k(  143) = (   0.2500000   0.1250000  -0.2500000), wk =   0.0039062
        k(  144) = (   0.2500000   0.1250000  -0.1250000), wk =   0.0039062
        k(  145) = (   0.2500000   0.2500000   0.0000000), wk =   0.0039062
        k(  146) = (   0.2500000   0.2500000   0.1250000), wk =   0.0039062
        k(  147) = (   0.2500000   0.2500000   0.2500000), wk =   0.0039062
        k(  148) = (   0.2500000   0.2500000   0.3750000), wk =   0.0039062
        k(  149) = (   0.2500000   0.2500000  -0.5000000), wk =   0.0039062
        k(  150) = (   0.2500000   0.2500000  -0.3750000), wk =   0.0039062
        k(  151) = (   0.2500000   0.2500000  -0.2500000), wk =   0.0039062
        k(  152) = (   0.2500000   0.2500000  -0.1250000), wk =   0.0039062
        k(  153) = (   0.2500000   0.3750000   0.0000000), wk =   0.0039062
        k(  154) = (   0.2500000   0.3750000   0.1250000), wk =   0.0039062
        k(  155) = (   0.2500000   0.3750000   0.2500000), wk =   0.0039062
        k(  156) = (   0.2500000   0.3750000   0.3750000), wk =   0.0039062
        k(  157) = (   0.2500000   0.3750000  -0.5000000), wk =   0.0039062
        k(  158) = (   0.2500000   0.3750000  -0.3750000), wk =   0.0039062
        k(  159) = (   0.2500000   0.3750000  -0.2500000), wk =   0.0039062
        k(  160) = (   0.2500000   0.3750000  -0.1250000), wk =   0.0039062
        k(  161) = (   0.2500000  -0.5000000   0.0000000), wk =   0.0039062
        k(  162) = (   0.2500000  -0.5000000   0.1250000), wk =   0.0039062
        k(  163) = (   0.2500000  -0.5000000   0.2500000), wk =   0.0039062
        k(  164) = (   0.2500000  -0.5000000   0.3750000), wk =   0.0039062
        k(  165) = (   0.2500000  -0.5000000  -0.5000000), wk =   0.0039062
        k(  166) = (   0.2500000  -0.5000000  -0.3750000), wk =   0.0039062
        k(  167) = (   0.2500000  -0.5000000  -0.2500000), wk =   0.0039062
        k(  168) = (   0.2500000  -0.5000000  -0.1250000), wk =   0.0039062
        k(  169) = (   0.2500000  -0.3750000   0.0000000), wk =   0.0039062
        k(  170) = (   0.2500000  -0.3750000   0.1250000), wk =   0.0039062
        k(  171) = (   0.2500000  -0.3750000   0.2500000), wk =   0.0039062
        k(  172) = (   0.2500000  -0.3750000   0.3750000), wk =   0.0039062
        k(  173) = (   0.2500000  -0.3750000  -0.5000000), wk =   0.0039062
        k(  174) = (   0.2500000  -0.3750000  -0.3750000), wk =   0.0039062
        k(  175) = (   0.2500000  -0.3750000  -0.2500000), wk =   0.0039062
        k(  176) = (   0.2500000  -0.3750000  -0.1250000), wk =   0.0039062
        k(  177) = (   0.2500000  -0.2500000   0.0000000), wk =   0.0039062
        k(  178) = (   0.2500000  -0.2500000   0.1250000), wk =   0.0039062
        k(  179) = (   0.2500000  -0.2500000   0.2500000), wk =   0.0039062
        k(  180) = (   0.2500000  -0.2500000   0.3750000), wk =   0.0039062
        k(  181) = (   0.2500000  -0.2500000  -0.5000000), wk =   0.0039062
        k(  182) = (   0.2500000  -0.2500000  -0.3750000), wk =   0.0039062
        k(  183) = (   0.2500000  -0.2500000  -0.2500000), wk =   0.0039062
        k(  184) = (   0.2500000  -0.2500000  -0.1250000), wk =   0.0039062
        k(  185) = (   0.2500000  -0.1250000   0.0000000), wk =   0.0039062
        k(  186) = (   0.2500000  -0.1250000   0.1250000), wk =   0.0039062
        k(  187) = (   0.2500000  -0.1250000   0.2500000), wk =   0.0039062
        k(  188) = (   0.2500000  -0.1250000   0.3750000), wk =   0.0039062
        k(  189) = (   0.2500000  -0.1250000  -0.5000000), wk =   0.0039062
        k(  190) = (   0.2500000  -0.1250000  -0.3750000), wk =   0.0039062
        k(  191) = (   0.2500000  -0.1250000  -0.2500000), wk =   0.0039062
        k(  192) = (   0.2500000  -0.1250000  -0.1250000), wk =   0.0039062
        k(  193) = (   0.3750000   0.0000000   0.0000000), wk =   0.0039062
        k(  194) = (   0.3750000   0.0000000   0.1250000), wk =   0.0039062
        k(  195) = (   0.3750000   0.0000000   0.2500000), wk =   0.0039062
        k(  196) = (   0.3750000   0.0000000   0.3750000), wk =   0.0039062
        k(  197) = (   0.3750000   0.0000000  -0.5000000), wk =   0.0039062
        k(  198) = (   0.3750000   0.0000000  -0.3750000), wk =   0.0039062
        k(  199) = (   0.3750000   0.0000000  -0.2500000), wk =   0.0039062
        k(  200) = (   0.3750000   0.0000000  -0.1250000), wk =   0.0039062
        k(  201) = (   0.3750000   0.1250000   0.0000000), wk =   0.0039062
        k(  202) = (   0.3750000   0.1250000   0.1250000), wk =   0.0039062
        k(  203) = (   0.3750000   0.1250000   0.2500000), wk =   0.0039062
        k(  204) = (   0.3750000   0.1250000   0.3750000), wk =   0.0039062
        k(  205) = (   0.3750000   0.1250000  -0.5000000), wk =   0.0039062
        k(  206) = (   0.3750000   0.1250000  -0.3750000), wk =   0.0039062
        k(  207) = (   0.3750000   0.1250000  -0.2500000), wk =   0.0039062
        k(  208) = (   0.3750000   0.1250000  -0.1250000), wk =   0.0039062
        k(  209) = (   0.3750000   0.2500000   0.0000000), wk =   0.0039062
        k(  210) = (   0.3750000   0.2500000   0.1250000), wk =   0.0039062
        k(  211) = (   0.3750000   0.2500000   0.2500000), wk =   0.0039062
        k(  212) = (   0.3750000   0.2500000   0.3750000), wk =   0.0039062
        k(  213) = (   0.3750000   0.2500000  -0.5000000), wk =   0.0039062
        k(  214) = (   0.3750000   0.2500000  -0.3750000), wk =   0.0039062
        k(  215) = (   0.3750000   0.2500000  -0.2500000), wk =   0.0039062
        k(  216) = (   0.3750000   0.2500000  -0.1250000), wk =   0.0039062
        k(  217) = (   0.3750000   0.3750000   0.0000000), wk =   0.0039062
        k(  218) = (   0.3750000   0.3750000   0.1250000), wk =   0.0039062
        k(  219) = (   0.3750000   0.3750000   0.2500000), wk =   0.0039062
        k(  220) = (   0.3750000   0.3750000   0.3750000), wk =   0.0039062
        k(  221) = (   0.3750000   0.3750000  -0.5000000), wk =   0.0039062
        k(  222) = (   0.3750000   0.3750000  -0.3750000), wk =   0.0039062
        k(  223) = (   0.3750000   0.3750000  -0.2500000), wk =   0.0039062
        k(  224) = (   0.3750000   0.3750000  -0.1250000), wk =   0.0039062
        k(  225) = (   0.3750000  -0.5000000   0.0000000), wk =   0.0039062
        k(  226) = (   0.3750000  -0.5000000   0.1250000), wk =   0.0039062
        k(  227) = (   0.3750000  -0.5000000   0.2500000), wk =   0.0039062
        k(  228) = (   0.3750000  -0.5000000   0.3750000), wk =   0.0039062
        k(  229) = (   0.3750000  -0.5000000  -0.5000000), wk =   0.0039062
        k(  230) = (   0.3750000  -0.5000000  -0.3750000), wk =   0.0039062
        k(  231) = (   0.3750000  -0.5000000  -0.2500000), wk =   0.0039062
        k(  232) = (   0.3750000  -0.5000000  -0.1250000), wk =   0.0039062
        k(  233) = (   0.3750000  -0.3750000   0.0000000), wk =   0.0039062
        k(  234) = (   0.3750000  -0.3750000   0.1250000), wk =   0.0039062
        k(  235) = (   0.3750000  -0.3750000   0.2500000), wk =   0.0039062
        k(  236) = (   0.3750000  -0.3750000   0.3750000), wk =   0.0039062
        k(  237) = (   0.3750000  -0.3750000  -0.5000000), wk =   0.0039062
        k(  238) = (   0.3750000  -0.3750000  -0.3750000), wk =   0.0039062
        k(  239) = (   0.3750000  -0.3750000  -0.2500000), wk =   0.0039062
        k(  240) = (   0.3750000  -0.3750000  -0.1250000), wk =   0.0039062
        k(  241) = (   0.3750000  -0.2500000   0.0000000), wk =   0.0039062
        k(  242) = (   0.3750000  -0.2500000   0.1250000), wk =   0.0039062
        k(  243) = (   0.3750000  -0.2500000   0.2500000), wk =   0.0039062
        k(  244) = (   0.3750000  -0.2500000   0.3750000), wk =   0.0039062
        k(  245) = (   0.3750000  -0.2500000  -0.5000000), wk =   0.0039062
        k(  246) = (   0.3750000  -0.2500000  -0.3750000), wk =   0.0039062
        k(  247) = (   0.3750000  -0.2500000  -0.2500000), wk =   0.0039062
        k(  248) = (   0.3750000  -0.2500000  -0.1250000), wk =   0.0039062
        k(  249) = (   0.3750000  -0.1250000   0.0000000), wk =   0.0039062
        k(  250) = (   0.3750000  -0.1250000   0.1250000), wk =   0.0039062
        k(  251) = (   0.3750000  -0.1250000   0.2500000), wk =   0.0039062
        k(  252) = (   0.3750000  -0.1250000   0.3750000), wk =   0.0039062
        k(  253) = (   0.3750000  -0.1250000  -0.5000000), wk =   0.0039062
        k(  254) = (   0.3750000  -0.1250000  -0.3750000), wk =   0.0039062
        k(  255) = (   0.3750000  -0.1250000  -0.2500000), wk =   0.0039062
        k(  256) = (   0.3750000  -0.1250000  -0.1250000), wk =   0.0039062
        k(  257) = (  -0.5000000   0.0000000   0.0000000), wk =   0.0039062
        k(  258) = (  -0.5000000   0.0000000   0.1250000), wk =   0.0039062
        k(  259) = (  -0.5000000   0.0000000   0.2500000), wk =   0.0039062
        k(  260) = (  -0.5000000   0.0000000   0.3750000), wk =   0.0039062
        k(  261) = (  -0.5000000   0.0000000  -0.5000000), wk =   0.0039062
        k(  262) = (  -0.5000000   0.0000000  -0.3750000), wk =   0.0039062
        k(  263) = (  -0.5000000   0.0000000  -0.2500000), wk =   0.0039062
        k(  264) = (  -0.5000000   0.0000000  -0.1250000), wk =   0.0039062
        k(  265) = (  -0.5000000   0.1250000   0.0000000), wk =   0.0039062
        k(  266) = (  -0.5000000   0.1250000   0.1250000), wk =   0.0039062
        k(  267) = (  -0.5000000   0.1250000   0.2500000), wk =   0.0039062
        k(  268) = (  -0.5000000   0.1250000   0.3750000), wk =   0.0039062
        k(  269) = (  -0.5000000   0.1250000  -0.5000000), wk =   0.0039062
        k(  270) = (  -0.5000000   0.1250000  -0.3750000), wk =   0.0039062
        k(  271) = (  -0.5000000   0.1250000  -0.2500000), wk =   0.0039062
        k(  272) = (  -0.5000000   0.1250000  -0.1250000), wk =   0.0039062
        k(  273) = (  -0.5000000   0.2500000   0.0000000), wk =   0.0039062
        k(  274) = (  -0.5000000   0.2500000   0.1250000), wk =   0.0039062
        k(  275) = (  -0.5000000   0.2500000   0.2500000), wk =   0.0039062
        k(  276) = (  -0.5000000   0.2500000   0.3750000), wk =   0.0039062
        k(  277) = (  -0.5000000   0.2500000  -0.5000000), wk =   0.0039062
        k(  278) = (  -0.5000000   0.2500000  -0.3750000), wk =   0.0039062
        k(  279) = (  -0.5000000   0.2500000  -0.2500000), wk =   0.0039062
        k(  280) = (  -0.5000000   0.2500000  -0.1250000), wk =   0.0039062
        k(  281) = (  -0.5000000   0.3750000   0.0000000), wk =   0.0039062
        k(  282) = (  -0.5000000   0.3750000   0.1250000), wk =   0.0039062
        k(  283) = (  -0.5000000   0.3750000   0.2500000), wk =   0.0039062
        k(  284) = (  -0.5000000   0.3750000   0.3750000), wk =   0.0039062
        k(  285) = (  -0.5000000   0.3750000  -0.5000000), wk =   0.0039062
        k(  286) = (  -0.5000000   0.3750000  -0.3750000), wk =   0.0039062
        k(  287) = (  -0.5000000   0.3750000  -0.2500000), wk =   0.0039062
        k(  288) = (  -0.5000000   0.3750000  -0.1250000), wk =   0.0039062
        k(  289) = (  -0.5000000  -0.5000000   0.0000000), wk =   0.0039062
        k(  290) = (  -0.5000000  -0.5000000   0.1250000), wk =   0.0039062
        k(  291) = (  -0.5000000  -0.5000000   0.2500000), wk =   0.0039062
        k(  292) = (  -0.5000000  -0.5000000   0.3750000), wk =   0.0039062
        k(  293) = (  -0.5000000  -0.5000000  -0.5000000), wk =   0.0039062
        k(  294) = (  -0.5000000  -0.5000000  -0.3750000), wk =   0.0039062
        k(  295) = (  -0.5000000  -0.5000000  -0.2500000), wk =   0.0039062
        k(  296) = (  -0.5000000  -0.5000000  -0.1250000), wk =   0.0039062
        k(  297) = (  -0.5000000  -0.3750000   0.0000000), wk =   0.0039062
        k(  298) = (  -0.5000000  -0.3750000   0.1250000), wk =   0.0039062
        k(  299) = (  -0.5000000  -0.3750000   0.2500000), wk =   0.0039062
        k(  300) = (  -0.5000000  -0.3750000   0.3750000), wk =   0.0039062
        k(  301) = (  -0.5000000  -0.3750000  -0.5000000), wk =   0.0039062
        k(  302) = (  -0.5000000  -0.3750000  -0.3750000), wk =   0.0039062
        k(  303) = (  -0.5000000  -0.3750000  -0.2500000), wk =   0.0039062
        k(  304) = (  -0.5000000  -0.3750000  -0.1250000), wk =   0.0039062
        k(  305) = (  -0.5000000  -0.2500000   0.0000000), wk =   0.0039062
        k(  306) = (  -0.5000000  -0.2500000   0.1250000), wk =   0.0039062
        k(  307) = (  -0.5000000  -0.2500000   0.2500000), wk =   0.0039062
        k(  308) = (  -0.5000000  -0.2500000   0.3750000), wk =   0.0039062
        k(  309) = (  -0.5000000  -0.2500000  -0.5000000), wk =   0.0039062
        k(  310) = (  -0.5000000  -0.2500000  -0.3750000), wk =   0.0039062
        k(  311) = (  -0.5000000  -0.2500000  -0.2500000), wk =   0.0039062
        k(  312) = (  -0.5000000  -0.2500000  -0.1250000), wk =   0.0039062
        k(  313) = (  -0.5000000  -0.1250000   0.0000000), wk =   0.0039062
        k(  314) = (  -0.5000000  -0.1250000   0.1250000), wk =   0.0039062
        k(  315) = (  -0.5000000  -0.1250000   0.2500000), wk =   0.0039062
        k(  316) = (  -0.5000000  -0.1250000   0.3750000), wk =   0.0039062
        k(  317) = (  -0.5000000  -0.1250000  -0.5000000), wk =   0.0039062
        k(  318) = (  -0.5000000  -0.1250000  -0.3750000), wk =   0.0039062
        k(  319) = (  -0.5000000  -0.1250000  -0.2500000), wk =   0.0039062
        k(  320) = (  -0.5000000  -0.1250000  -0.1250000), wk =   0.0039062
        k(  321) = (  -0.3750000   0.0000000   0.0000000), wk =   0.0039062
        k(  322) = (  -0.3750000   0.0000000   0.1250000), wk =   0.0039062
        k(  323) = (  -0.3750000   0.0000000   0.2500000), wk =   0.0039062
        k(  324) = (  -0.3750000   0.0000000   0.3750000), wk =   0.0039062
        k(  325) = (  -0.3750000   0.0000000  -0.5000000), wk =   0.0039062
        k(  326) = (  -0.3750000   0.0000000  -0.3750000), wk =   0.0039062
        k(  327) = (  -0.3750000   0.0000000  -0.2500000), wk =   0.0039062
        k(  328) = (  -0.3750000   0.0000000  -0.1250000), wk =   0.0039062
        k(  329) = (  -0.3750000   0.1250000   0.0000000), wk =   0.0039062
        k(  330) = (  -0.3750000   0.1250000   0.1250000), wk =   0.0039062
        k(  331) = (  -0.3750000   0.1250000   0.2500000), wk =   0.0039062
        k(  332) = (  -0.3750000   0.1250000   0.3750000), wk =   0.0039062
        k(  333) = (  -0.3750000   0.1250000  -0.5000000), wk =   0.0039062
        k(  334) = (  -0.3750000   0.1250000  -0.3750000), wk =   0.0039062
        k(  335) = (  -0.3750000   0.1250000  -0.2500000), wk =   0.0039062
        k(  336) = (  -0.3750000   0.1250000  -0.1250000), wk =   0.0039062
        k(  337) = (  -0.3750000   0.2500000   0.0000000), wk =   0.0039062
        k(  338) = (  -0.3750000   0.2500000   0.1250000), wk =   0.0039062
        k(  339) = (  -0.3750000   0.2500000   0.2500000), wk =   0.0039062
        k(  340) = (  -0.3750000   0.2500000   0.3750000), wk =   0.0039062
        k(  341) = (  -0.3750000   0.2500000  -0.5000000), wk =   0.0039062
        k(  342) = (  -0.3750000   0.2500000  -0.3750000), wk =   0.0039062
        k(  343) = (  -0.3750000   0.2500000  -0.2500000), wk =   0.0039062
        k(  344) = (  -0.3750000   0.2500000  -0.1250000), wk =   0.0039062
        k(  345) = (  -0.3750000   0.3750000   0.0000000), wk =   0.0039062
        k(  346) = (  -0.3750000   0.3750000   0.1250000), wk =   0.0039062
        k(  347) = (  -0.3750000   0.3750000   0.2500000), wk =   0.0039062
        k(  348) = (  -0.3750000   0.3750000   0.3750000), wk =   0.0039062
        k(  349) = (  -0.3750000   0.3750000  -0.5000000), wk =   0.0039062
        k(  350) = (  -0.3750000   0.3750000  -0.3750000), wk =   0.0039062
        k(  351) = (  -0.3750000   0.3750000  -0.2500000), wk =   0.0039062
        k(  352) = (  -0.3750000   0.3750000  -0.1250000), wk =   0.0039062
        k(  353) = (  -0.3750000  -0.5000000   0.0000000), wk =   0.0039062
        k(  354) = (  -0.3750000  -0.5000000   0.1250000), wk =   0.0039062
        k(  355) = (  -0.3750000  -0.5000000   0.2500000), wk =   0.0039062
        k(  356) = (  -0.3750000  -0.5000000   0.3750000), wk =   0.0039062
        k(  357) = (  -0.3750000  -0.5000000  -0.5000000), wk =   0.0039062
        k(  358) = (  -0.3750000  -0.5000000  -0.3750000), wk =   0.0039062
        k(  359) = (  -0.3750000  -0.5000000  -0.2500000), wk =   0.0039062
        k(  360) = (  -0.3750000  -0.5000000  -0.1250000), wk =   0.0039062
        k(  361) = (  -0.3750000  -0.3750000   0.0000000), wk =   0.0039062
        k(  362) = (  -0.3750000  -0.3750000   0.1250000), wk =   0.0039062
        k(  363) = (  -0.3750000  -0.3750000   0.2500000), wk =   0.0039062
        k(  364) = (  -0.3750000  -0.3750000   0.3750000), wk =   0.0039062
        k(  365) = (  -0.3750000  -0.3750000  -0.5000000), wk =   0.0039062
        k(  366) = (  -0.3750000  -0.3750000  -0.3750000), wk =   0.0039062
        k(  367) = (  -0.3750000  -0.3750000  -0.2500000), wk =   0.0039062
        k(  368) = (  -0.3750000  -0.3750000  -0.1250000), wk =   0.0039062
        k(  369) = (  -0.3750000  -0.2500000   0.0000000), wk =   0.0039062
        k(  370) = (  -0.3750000  -0.2500000   0.1250000), wk =   0.0039062
        k(  371) = (  -0.3750000  -0.2500000   0.2500000), wk =   0.0039062
        k(  372) = (  -0.3750000  -0.2500000   0.3750000), wk =   0.0039062
        k(  373) = (  -0.3750000  -0.2500000  -0.5000000), wk =   0.0039062
        k(  374) = (  -0.3750000  -0.2500000  -0.3750000), wk =   0.0039062
        k(  375) = (  -0.3750000  -0.2500000  -0.2500000), wk =   0.0039062
        k(  376) = (  -0.3750000  -0.2500000  -0.1250000), wk =   0.0039062
        k(  377) = (  -0.3750000  -0.1250000   0.0000000), wk =   0.0039062
        k(  378) = (  -0.3750000  -0.1250000   0.1250000), wk =   0.0039062
        k(  379) = (  -0.3750000  -0.1250000   0.2500000), wk =   0.0039062
        k(  380) = (  -0.3750000  -0.1250000   0.3750000), wk =   0.0039062
        k(  381) = (  -0.3750000  -0.1250000  -0.5000000), wk =   0.0039062
        k(  382) = (  -0.3750000  -0.1250000  -0.3750000), wk =   0.0039062
        k(  383) = (  -0.3750000  -0.1250000  -0.2500000), wk =   0.0039062
        k(  384) = (  -0.3750000  -0.1250000  -0.1250000), wk =   0.0039062
        k(  385) = (  -0.2500000   0.0000000   0.0000000), wk =   0.0039062
        k(  386) = (  -0.2500000   0.0000000   0.1250000), wk =   0.0039062
        k(  387) = (  -0.2500000   0.0000000   0.2500000), wk =   0.0039062
        k(  388) = (  -0.2500000   0.0000000   0.3750000), wk =   0.0039062
        k(  389) = (  -0.2500000   0.0000000  -0.5000000), wk =   0.0039062
        k(  390) = (  -0.2500000   0.0000000  -0.3750000), wk =   0.0039062
        k(  391) = (  -0.2500000   0.0000000  -0.2500000), wk =   0.0039062
        k(  392) = (  -0.2500000   0.0000000  -0.1250000), wk =   0.0039062
        k(  393) = (  -0.2500000   0.1250000   0.0000000), wk =   0.0039062
        k(  394) = (  -0.2500000   0.1250000   0.1250000), wk =   0.0039062
        k(  395) = (  -0.2500000   0.1250000   0.2500000), wk =   0.0039062
        k(  396) = (  -0.2500000   0.1250000   0.3750000), wk =   0.0039062
        k(  397) = (  -0.2500000   0.1250000  -0.5000000), wk =   0.0039062
        k(  398) = (  -0.2500000   0.1250000  -0.3750000), wk =   0.0039062
        k(  399) = (  -0.2500000   0.1250000  -0.2500000), wk =   0.0039062
        k(  400) = (  -0.2500000   0.1250000  -0.1250000), wk =   0.0039062
        k(  401) = (  -0.2500000   0.2500000   0.0000000), wk =   0.0039062
        k(  402) = (  -0.2500000   0.2500000   0.1250000), wk =   0.0039062
        k(  403) = (  -0.2500000   0.2500000   0.2500000), wk =   0.0039062
        k(  404) = (  -0.2500000   0.2500000   0.3750000), wk =   0.0039062
        k(  405) = (  -0.2500000   0.2500000  -0.5000000), wk =   0.0039062
        k(  406) = (  -0.2500000   0.2500000  -0.3750000), wk =   0.0039062
        k(  407) = (  -0.2500000   0.2500000  -0.2500000), wk =   0.0039062
        k(  408) = (  -0.2500000   0.2500000  -0.1250000), wk =   0.0039062
        k(  409) = (  -0.2500000   0.3750000   0.0000000), wk =   0.0039062
        k(  410) = (  -0.2500000   0.3750000   0.1250000), wk =   0.0039062
        k(  411) = (  -0.2500000   0.3750000   0.2500000), wk =   0.0039062
        k(  412) = (  -0.2500000   0.3750000   0.3750000), wk =   0.0039062
        k(  413) = (  -0.2500000   0.3750000  -0.5000000), wk =   0.0039062
        k(  414) = (  -0.2500000   0.3750000  -0.3750000), wk =   0.0039062
        k(  415) = (  -0.2500000   0.3750000  -0.2500000), wk =   0.0039062
        k(  416) = (  -0.2500000   0.3750000  -0.1250000), wk =   0.0039062
        k(  417) = (  -0.2500000  -0.5000000   0.0000000), wk =   0.0039062
        k(  418) = (  -0.2500000  -0.5000000   0.1250000), wk =   0.0039062
        k(  419) = (  -0.2500000  -0.5000000   0.2500000), wk =   0.0039062
        k(  420) = (  -0.2500000  -0.5000000   0.3750000), wk =   0.0039062
        k(  421) = (  -0.2500000  -0.5000000  -0.5000000), wk =   0.0039062
        k(  422) = (  -0.2500000  -0.5000000  -0.3750000), wk =   0.0039062
        k(  423) = (  -0.2500000  -0.5000000  -0.2500000), wk =   0.0039062
        k(  424) = (  -0.2500000  -0.5000000  -0.1250000), wk =   0.0039062
        k(  425) = (  -0.2500000  -0.3750000   0.0000000), wk =   0.0039062
        k(  426) = (  -0.2500000  -0.3750000   0.1250000), wk =   0.0039062
        k(  427) = (  -0.2500000  -0.3750000   0.2500000), wk =   0.0039062
        k(  428) = (  -0.2500000  -0.3750000   0.3750000), wk =   0.0039062
        k(  429) = (  -0.2500000  -0.3750000  -0.5000000), wk =   0.0039062
        k(  430) = (  -0.2500000  -0.3750000  -0.3750000), wk =   0.0039062
        k(  431) = (  -0.2500000  -0.3750000  -0.2500000), wk =   0.0039062
        k(  432) = (  -0.2500000  -0.3750000  -0.1250000), wk =   0.0039062
        k(  433) = (  -0.2500000  -0.2500000   0.0000000), wk =   0.0039062
        k(  434) = (  -0.2500000  -0.2500000   0.1250000), wk =   0.0039062
        k(  435) = (  -0.2500000  -0.2500000   0.2500000), wk =   0.0039062
        k(  436) = (  -0.2500000  -0.2500000   0.3750000), wk =   0.0039062
        k(  437) = (  -0.2500000  -0.2500000  -0.5000000), wk =   0.0039062
        k(  438) = (  -0.2500000  -0.2500000  -0.3750000), wk =   0.0039062
        k(  439) = (  -0.2500000  -0.2500000  -0.2500000), wk =   0.0039062
        k(  440) = (  -0.2500000  -0.2500000  -0.1250000), wk =   0.0039062
        k(  441) = (  -0.2500000  -0.1250000   0.0000000), wk =   0.0039062
        k(  442) = (  -0.2500000  -0.1250000   0.1250000), wk =   0.0039062
        k(  443) = (  -0.2500000  -0.1250000   0.2500000), wk =   0.0039062
        k(  444) = (  -0.2500000  -0.1250000   0.3750000), wk =   0.0039062
        k(  445) = (  -0.2500000  -0.1250000  -0.5000000), wk =   0.0039062
        k(  446) = (  -0.2500000  -0.1250000  -0.3750000), wk =   0.0039062
        k(  447) = (  -0.2500000  -0.1250000  -0.2500000), wk =   0.0039062
        k(  448) = (  -0.2500000  -0.1250000  -0.1250000), wk =   0.0039062
        k(  449) = (  -0.1250000   0.0000000   0.0000000), wk =   0.0039062
        k(  450) = (  -0.1250000   0.0000000   0.1250000), wk =   0.0039062
        k(  451) = (  -0.1250000   0.0000000   0.2500000), wk =   0.0039062
        k(  452) = (  -0.1250000   0.0000000   0.3750000), wk =   0.0039062
        k(  453) = (  -0.1250000   0.0000000  -0.5000000), wk =   0.0039062
        k(  454) = (  -0.1250000   0.0000000  -0.3750000), wk =   0.0039062
        k(  455) = (  -0.1250000   0.0000000  -0.2500000), wk =   0.0039062
        k(  456) = (  -0.1250000   0.0000000  -0.1250000), wk =   0.0039062
        k(  457) = (  -0.1250000   0.1250000   0.0000000), wk =   0.0039062
        k(  458) = (  -0.1250000   0.1250000   0.1250000), wk =   0.0039062
        k(  459) = (  -0.1250000   0.1250000   0.2500000), wk =   0.0039062
        k(  460) = (  -0.1250000   0.1250000   0.3750000), wk =   0.0039062
        k(  461) = (  -0.1250000   0.1250000  -0.5000000), wk =   0.0039062
        k(  462) = (  -0.1250000   0.1250000  -0.3750000), wk =   0.0039062
        k(  463) = (  -0.1250000   0.1250000  -0.2500000), wk =   0.0039062
        k(  464) = (  -0.1250000   0.1250000  -0.1250000), wk =   0.0039062
        k(  465) = (  -0.1250000   0.2500000   0.0000000), wk =   0.0039062
        k(  466) = (  -0.1250000   0.2500000   0.1250000), wk =   0.0039062
        k(  467) = (  -0.1250000   0.2500000   0.2500000), wk =   0.0039062
        k(  468) = (  -0.1250000   0.2500000   0.3750000), wk =   0.0039062
        k(  469) = (  -0.1250000   0.2500000  -0.5000000), wk =   0.0039062
        k(  470) = (  -0.1250000   0.2500000  -0.3750000), wk =   0.0039062
        k(  471) = (  -0.1250000   0.2500000  -0.2500000), wk =   0.0039062
        k(  472) = (  -0.1250000   0.2500000  -0.1250000), wk =   0.0039062
        k(  473) = (  -0.1250000   0.3750000   0.0000000), wk =   0.0039062
        k(  474) = (  -0.1250000   0.3750000   0.1250000), wk =   0.0039062
        k(  475) = (  -0.1250000   0.3750000   0.2500000), wk =   0.0039062
        k(  476) = (  -0.1250000   0.3750000   0.3750000), wk =   0.0039062
        k(  477) = (  -0.1250000   0.3750000  -0.5000000), wk =   0.0039062
        k(  478) = (  -0.1250000   0.3750000  -0.3750000), wk =   0.0039062
        k(  479) = (  -0.1250000   0.3750000  -0.2500000), wk =   0.0039062
        k(  480) = (  -0.1250000   0.3750000  -0.1250000), wk =   0.0039062
        k(  481) = (  -0.1250000  -0.5000000   0.0000000), wk =   0.0039062
        k(  482) = (  -0.1250000  -0.5000000   0.1250000), wk =   0.0039062
        k(  483) = (  -0.1250000  -0.5000000   0.2500000), wk =   0.0039062
[...]
     1.0000   1.0000   0.0000   0.0000

          k =-0.2500-0.2887 0.0000 (   458 PWs)   bands (ev):

    -0.1208   7.5826   8.8997  14.0708

     occupation numbers 
     1.0000   1.0000   0.0000   0.0000

          k =-0.2500-0.2887 0.0791 (   455 PWs)   bands (ev):

     0.0074   6.2191  10.3766  14.3201

     occupation numbers 
     1.0000   1.0000   0.0000   0.0000

          k =-0.2500-0.2887 0.1583 (   455 PWs)   bands (ev):

     0.3953   4.5680  12.2400  15.1127

     occupation numbers 
     1.0000   1.0000   0.0000   0.0000

          k =-0.2500-0.2887 0.2374 (   456 PWs)   bands (ev):

     1.0444   3.1349  13.7754  15.9552

     occupation numbers 
     1.0000   1.0000   0.0000   0.0000

          k =-0.2500-0.2887-0.3165 (   452 PWs)   bands (ev):

     1.9509   1.9642  15.0682  15.0864

     occupation numbers 
     1.0000   1.0000   0.0000   0.0000

          k =-0.2500-0.2887-0.2374 (   456 PWs)   bands (ev):

     1.0448   3.1340  13.7784  15.9684

     occupation numbers 
     1.0000   1.0000   0.0000   0.0000

          k =-0.2500-0.2887-0.1583 (   455 PWs)   bands (ev):

     0.3955   4.5667  12.2436  15.1242

     occupation numbers 
     1.0000   1.0000   0.0000   0.0000

          k =-0.2500-0.2887-0.0791 (   455 PWs)   bands (ev):

     0.0075   6.2173  10.3807  14.3223

     occupation numbers 
     1.0000   1.0000   0.0000   0.0000

          k =-0.1250-0.0722 0.0000 (   447 PWs)   bands (ev):

    -2.8202   4.0586   9.2783  21.1062

     occupation numbers 
     1.0000   1.0000   0.0000   0.0000

          k =-0.1250-0.0722 0.0791 (   455 PWs)   bands (ev):

    -2.6859   3.3049  10.3353  21.2219

     occupation numbers 
     1.0000   1.0000   0.0000   0.0000

          k =-0.1250-0.0722 0.1583 (   461 PWs)   bands (ev):

    -2.2830   1.8923  12.6481  21.5018

     occupation numbers 
     1.0000   1.0000   0.0000   0.0000

          k =-0.1250-0.0722 0.2374 (   465 PWs)   bands (ev):

    -1.6124   0.5061  15.5000  21.3543

     occupation numbers 
     1.0000   1.0000   0.0000   0.0000

          k =-0.1250-0.0722-0.3165 (   468 PWs)   bands (ev):

    -0.6840  -0.6710  18.6053  18.6266

     occupation numbers 
     1.0000   1.0000   0.0000   0.0000

          k =-0.1250-0.0722-0.2374 (   465 PWs)   bands (ev):

    -1.6124   0.5058  15.5035  21.3487

     occupation numbers 
     1.0000   1.0000   0.0000   0.0000

          k =-0.1250-0.0722-0.1583 (   461 PWs)   bands (ev):

    -2.2829   1.8919  12.6523  21.4990

     occupation numbers 
     1.0000   1.0000   0.0000   0.0000

          k =-0.1250-0.0722-0.0791 (   455 PWs)   bands (ev):

    -2.6858   3.3044  10.3361  21.2148

     occupation numbers 
     1.0000   1.0000   0.0000   0.0000

          k =-0.1250 0.0722 0.0000 (   447 PWs)   bands (ev):

    -2.8166   4.0410   9.3783  20.7347

     occupation numbers 
     1.0000   1.0000   0.0000   0.0000

          k =-0.1250 0.0722 0.0791 (   455 PWs)   bands (ev):

    -2.6810   3.3041  10.4070  20.8332

     occupation numbers 
     1.0000   1.0000   0.0000   0.0000

          k =-0.1250 0.0722 0.1583 (   461 PWs)   bands (ev):

    -2.2749   1.9061  12.6609  20.8504

     occupation numbers 
     1.0000   1.0000   0.0000   0.0000

          k =-0.1250 0.0722 0.2374 (   465 PWs)   bands (ev):

    -1.6002   0.5236  15.4000  20.2840

     occupation numbers 
     1.0000   1.0000   0.0000   0.0000

          k =-0.1250 0.0722-0.3165 (   468 PWs)   bands (ev):

    -0.6681  -0.6552  18.2114  18.2328

     occupation numbers 
     1.0000   1.0000   0.0000   0.0000

          k =-0.1250 0.0722-0.2374 (   465 PWs)   bands (ev):

    -1.6003   0.5235  15.4019  20.2790

     occupation numbers 
     1.0000   1.0000   0.0000   0.0000

          k =-0.1250 0.0722-0.1583 (   461 PWs)   bands (ev):

    -2.2748   1.9059  12.6620  20.8441

     occupation numbers 
     1.0000   1.0000   0.0000   0.0000

          k =-0.1250 0.0722-0.0791 (   455 PWs)   bands (ev):

    -2.6809   3.3039  10.4068  20.7789

     occupation numbers 
     1.0000   1.0000   0.0000   0.0000

          k =-0.1250 0.2165 0.0000 (   453 PWs)   bands (ev):

    -1.9124   5.1831   9.6791  17.8082

     occupation numbers 
     1.0000   1.0000   0.0000   0.0000

          k =-0.1250 0.2165 0.0791 (   458 PWs)   bands (ev):

    -1.7752   4.3611  10.7607  17.8582

     occupation numbers 
     1.0000   1.0000   0.0000   0.0000

          k =-0.1250 0.2165 0.1583 (   457 PWs)   bands (ev):

    -1.3642   2.8900  12.9819  17.9836

     occupation numbers 
     1.0000   1.0000   0.0000   0.0000

          k =-0.1250 0.2165 0.2374 (   458 PWs)   bands (ev):

    -0.6817   1.4735  15.4714  18.0445

     occupation numbers 
     1.0000   1.0000   0.0000   0.0000

          k =-0.1250 0.2165-0.3165 (   458 PWs)   bands (ev):

     0.2624   0.2759  17.4376  17.4564

     occupation numbers 
     1.0000   1.0000   0.0000   0.0000

          k =-0.1250 0.2165-0.2374 (   458 PWs)   bands (ev):

    -0.6817   1.4736  15.4695  18.0477

     occupation numbers 
     1.0000   1.0000   0.0000   0.0000

          k =-0.1250 0.2165-0.1583 (   457 PWs)   bands (ev):

    -1.3644   2.8901  12.9776  17.9838

     occupation numbers 
     1.0000   1.0000   0.0000   0.0000

          k =-0.1250 0.2165-0.0791 (   458 PWs)   bands (ev):

    -1.7752   4.3612  10.7602  17.8586

     occupation numbers 
     1.0000   1.0000   0.0000   0.0000

          k =-0.1250 0.3608 0.0000 (   458 PWs)   bands (ev):

    -0.1080   7.4348   9.3599  14.3414

     occupation numbers 
     1.0000   1.0000   0.0000   0.0000

          k =-0.1250 0.3608 0.0791 (   455 PWs)   bands (ev):

     0.0292   6.2952  10.5624  14.5041

     occupation numbers 
     1.0000   1.0000   0.0000   0.0000

          k =-0.1250 0.3608 0.1583 (   455 PWs)   bands (ev):

     0.4401   4.7055  12.2115  14.9544

     occupation numbers 
     1.0000   1.0000   0.0000   0.0000

          k =-0.1250 0.3608 0.2374 (   456 PWs)   bands (ev):

     1.1218   3.2717  13.4622  14.9852

     occupation numbers 
     1.0000   1.0000   0.0000   0.0000

          k =-0.1250 0.3608-0.3165 (   452 PWs)   bands (ev):

     2.0622   2.0760  14.3293  14.3471

     occupation numbers 
     1.0000   1.0000   0.0000   0.0000

          k =-0.1250 0.3608-0.2374 (   456 PWs)   bands (ev):

     1.1217   3.2716  13.4548  14.9890

     occupation numbers 
     1.0000   1.0000   0.0000   0.0000

          k =-0.1250 0.3608-0.1583 (   455 PWs)   bands (ev):

     0.4400   4.7061  12.2050  14.9613

     occupation numbers 
     1.0000   1.0000   0.0000   0.0000

          k =-0.1250 0.3608-0.0791 (   455 PWs)   bands (ev):

     0.0299   6.2970  10.5587  14.5089

     occupation numbers 
     1.0000   1.0000   0.0000   0.0000

          k =-0.1250-0.6495 0.0000 (   454 PWs)   bands (ev):

     2.4871   6.4801  10.5064  14.3094

     occupation numbers 
     1.0000   1.0000   0.0000   0.0000

          k =-0.1250-0.6495 0.0791 (   455 PWs)   bands (ev):

     2.6144   6.3494  10.2606  13.3806

     occupation numbers 
     1.0000   1.0000   0.0000   0.0000

          k =-0.1250-0.6495 0.1583 (   456 PWs)   bands (ev):

     2.9894   5.9150   9.9303  12.1569

     occupation numbers 
     1.0000   1.0000   0.0000   0.0000

          k =-0.1250-0.6495 0.2374 (   456 PWs)   bands (ev):

     3.5878   5.1918   9.9488  11.1138

     occupation numbers 
     1.0000   1.0000   0.0000   0.0000

          k =-0.1250-0.6495-0.3165 (   460 PWs)   bands (ev):

     4.3514   4.3630  10.3578  10.3683

     occupation numbers 
     1.0000   1.0000   0.0000   0.0000

          k =-0.1250-0.6495-0.2374 (   456 PWs)   bands (ev):

     3.5875   5.1930   9.9453  11.1143

     occupation numbers 
     1.0000   1.0000   0.0000   0.0000

          k =-0.1250-0.6495-0.1583 (   456 PWs)   bands (ev):

     2.9893   5.9164   9.9271  12.1573

     occupation numbers 
     1.0000   1.0000   0.0000   0.0000

          k =-0.1250-0.6495-0.0791 (   455 PWs)   bands (ev):

     2.6144   6.3505  10.2585  13.4134

     occupation numbers 
     1.0000   1.0000   0.0000   0.0000

          k =-0.1250-0.5052 0.0000 (   454 PWs)   bands (ev):

     2.4630   6.5101  10.6591  12.8768

     occupation numbers 
     1.0000   1.0000   0.0000   0.0000

          k =-0.1250-0.5052 0.0791 (   455 PWs)   bands (ev):

     2.5834   6.3885  10.1635  13.3181

     occupation numbers 
     1.0000   1.0000   0.0000   0.0000

          k =-0.1250-0.5052 0.1583 (   456 PWs)   bands (ev):

     2.9390   5.9298   9.7080  12.6595

     occupation numbers 
     1.0000   1.0000   0.0000   0.0000

          k =-0.1250-0.5052 0.2374 (   456 PWs)   bands (ev):

     3.5145   5.1442   9.8583  11.4887

     occupation numbers 
     1.0000   1.0000   0.0000   0.0000

          k =-0.1250-0.5052-0.3165 (   460 PWs)   bands (ev):

     4.2721   4.2826  10.5014  10.5124

     occupation numbers 
     1.0000   1.0000   0.0000   0.0000

          k =-0.1250-0.5052-0.2374 (   456 PWs)   bands (ev):

     3.5149   5.1430   9.8604  11.4859

     occupation numbers 
     1.0000   1.0000   0.0000   0.0000

          k =-0.1250-0.5052-0.1583 (   456 PWs)   bands (ev):

     2.9384   5.9282   9.7095  12.6597

     occupation numbers 
     1.0000   1.0000   0.0000   0.0000

          k =-0.1250-0.5052-0.0791 (   455 PWs)   bands (ev):

     2.5835   6.3875  10.1632  13.3242

     occupation numbers 
     1.0000   1.0000   0.0000   0.0000

          k =-0.1250-0.3608 0.0000 (   458 PWs)   bands (ev):

    -0.1259   7.5434   9.1681  13.6481

     occupation numbers 
     1.0000   1.0000   0.0000   0.0000

          k =-0.1250-0.3608 0.0791 (   455 PWs)   bands (ev):

     0.0057   6.2699  10.5185  13.9373

     occupation numbers 
     1.0000   1.0000   0.0000   0.0000

          k =-0.1250-0.3608 0.1583 (   455 PWs)   bands (ev):

     0.4020   4.6253  12.2146  14.8872

     occupation numbers 
     1.0000   1.0000   0.0000   0.0000

          k =-0.1250-0.3608 0.2374 (   456 PWs)   bands (ev):

     1.0617   3.1812  13.5154  15.5779

     occupation numbers 
     1.0000   1.0000   0.0000   0.0000

          k =-0.1250-0.3608-0.3165 (   452 PWs)   bands (ev):

     1.9821   1.9956  14.6383  14.6536

     occupation numbers 
     1.0000   1.0000   0.0000   0.0000

          k =-0.1250-0.3608-0.2374 (   456 PWs)   bands (ev):

     1.0620   3.1798  13.5219  15.5735

     occupation numbers 
     1.0000   1.0000   0.0000   0.0000

          k =-0.1250-0.3608-0.1583 (   455 PWs)   bands (ev):

     0.4020   4.6239  12.2217  14.8922

     occupation numbers 
     1.0000   1.0000   0.0000   0.0000

          k =-0.1250-0.3608-0.0791 (   455 PWs)   bands (ev):

     0.0057   6.2679  10.5238  13.9337

     occupation numbers 
     1.0000   1.0000   0.0000   0.0000

          k =-0.1250-0.2165 0.0000 (   453 PWs)   bands (ev):

    -1.9237   5.2398   9.3921  18.2140

     occupation numbers 
     1.0000   1.0000   0.0000   0.0000

          k =-0.1250-0.2165 0.0791 (   458 PWs)   bands (ev):

    -1.7900   4.3585  10.5632  18.3251

     occupation numbers 
     1.0000   1.0000   0.0000   0.0000

          k =-0.1250-0.2165 0.1583 (   457 PWs)   bands (ev):

    -1.3881   2.8447  12.9282  18.7815

     occupation numbers 
     1.0000   1.0000   0.0000   0.0000

          k =-0.1250-0.2165 0.2374 (   458 PWs)   bands (ev):

    -0.7172   1.4191  15.6861  19.5545

     occupation numbers 
     1.0000   1.0000   0.0000   0.0000

          k =-0.1250-0.2165-0.3165 (   458 PWs)   bands (ev):

     0.2141   0.2274  18.3532  18.3748

     occupation numbers 
     1.0000   1.0000   0.0000   0.0000

          k =-0.1250-0.2165-0.2374 (   458 PWs)   bands (ev):

    -0.7171   1.4186  15.6943  19.5364

     occupation numbers 
     1.0000   1.0000   0.0000   0.0000

          k =-0.1250-0.2165-0.1583 (   457 PWs)   bands (ev):

    -1.3879   2.8440  12.9342  18.7986

     occupation numbers 
     1.0000   1.0000   0.0000   0.0000

          k =-0.1250-0.2165-0.0791 (   458 PWs)   bands (ev):

    -1.7896   4.3571  10.5659  18.3491

     occupation numbers 
     1.0000   1.0000   0.0000   0.0000

     the Fermi energy is     8.3658 ev

!    total energy              =      -5.34022544 Ry
     estimated scf accuracy    <       0.00268316 Ry
     smearing contrib. (-TS)   =      -0.00004781 Ry
     internal energy E=F+TS    =      -5.34017764 Ry

     The total energy is F=E-TS. E is the sum of the following terms:
     one-electron contribution =       4.06989449 Ry
     hartree contribution      =       0.00588562 Ry
     xc contribution           =      -3.29703500 Ry
     ewald contribution        =      -6.11892275 Ry

     convergence has been achieved in   1 iterations

     Forces acting on atoms (cartesian axes, Ry/au):

     atom    1 type  1   force =     0.05583112    0.03743560   -0.00023316
     atom    2 type  1   force =    -0.05583112   -0.03743560    0.00023316
     The non-local contrib.  to forces
     atom    1 type  1   force =     0.07346272    0.04360298   -0.00114786
     atom    2 type  1   force =    -0.07347262   -0.04359293    0.00114953
     The ionic contribution  to forces
     atom    1 type  1   force =     0.03818637    0.03050041   -0.00255555
     atom    2 type  1   force =    -0.03818637   -0.03050041    0.00255555
     The local contribution  to forces
     atom    1 type  1   force =    -0.05315470   -0.03485711    0.00378713
     atom    2 type  1   force =     0.05315917    0.03486043   -0.00378964
     The core correction contribution to forces
     atom    1 type  1   force =    -0.00320717   -0.00211096    0.00022245
     atom    2 type  1   force =     0.00320768    0.00211060   -0.00022287
     The Hubbard contrib.    to forces
     atom    1 type  1   force =     0.00000000    0.00000000    0.00000000
     atom    2 type  1   force =     0.00000000    0.00000000    0.00000000
     The SCF correction term to forces
     atom    1 type  1   force =     0.00054148    0.00030675   -0.00053993
     atom    2 type  1   force =    -0.00054138   -0.00030683    0.00053999

     Total force =     0.095064     Total SCF correction =     0.001165


     Computing stress (Cartesian axis) and pressure

          total   stress  (Ry/bohr**3)                   (kbar)     P=       51.73
  -0.00004830   0.00036741  -0.00000692           -7.11       54.05       -1.02
   0.00036741   0.00001136  -0.00000387           54.05        1.67       -0.57
  -0.00000692  -0.00000387   0.00109193           -1.02       -0.57      160.63

     kinetic stress (kbar)   2780.93     50.25     -0.64
                               50.25   2804.36     -0.22
                               -0.64     -0.22   2834.66

     local   stress (kbar)    369.28   -186.18      0.40
                             -186.18    286.76      0.27
                                0.40      0.27     53.64

     nonloc. stress (kbar)    901.70     34.65     -0.09
                               34.65    916.70     -0.08
                               -0.09     -0.08    966.17

     hartree stress (kbar)      0.80      2.33      0.01
                                2.33      2.02      0.01
                                0.01      0.01      5.31

     exc-cor stress (kbar)    117.30      2.91     -0.01
                                2.91    118.67     -0.01
                               -0.01     -0.01    122.19

     corecor stress (kbar)  -1219.64     -8.53      0.01
                               -8.53  -1223.50      0.03
                                0.01      0.03  -1233.78

     ewald   stress (kbar)  -2957.48    158.62     -0.70
                              158.62  -2903.32     -0.56
                               -0.70     -0.56  -2587.56

     hubbard stress (kbar)      0.00      0.00      0.00
                                0.00      0.00      0.00
                                0.00      0.00      0.00

     DFT-D   stress (kbar)      0.00      0.00      0.00
                                0.00      0.00      0.00
                                0.00      0.00      0.00

     XDM     stress (kbar)      0.00      0.00      0.00
                                0.00      0.00      0.00
                                0.00      0.00      0.00

     dft-nl  stress (kbar)      0.00      0.00      0.00
                                0.00      0.00      0.00
                                0.00      0.00      0.00

     TS-vdW  stress (kbar)      0.00      0.00      0.00
                                0.00      0.00      0.00
                                0.00      0.00      0.00



     Writing output data file temp/Be.save/

     init_run     :      4.58s CPU      4.62s WALL (       1 calls)
     electrons    :     21.65s CPU     22.00s WALL (       1 calls)
     forces       :      0.25s CPU      0.25s WALL (       1 calls)
     stress       :      0.91s CPU      0.92s WALL (       1 calls)

     Called by init_run:
     wfcinit      :      4.41s CPU      4.45s WALL (       1 calls)
     wfcinit:atom :      0.05s CPU      0.05s WALL (     512 calls)
     wfcinit:wfcr :      4.18s CPU      4.22s WALL (     512 calls)
     potinit      :      0.01s CPU      0.01s WALL (       1 calls)
     hinit0       :      0.13s CPU      0.13s WALL (       1 calls)

     Called by electrons:
     c_bands      :     19.77s CPU     20.13s WALL (       2 calls)
     sum_band     :      1.86s CPU      1.86s WALL (       2 calls)
     v_of_rho     :      0.02s CPU      0.02s WALL (       2 calls)
     v_h          :      0.00s CPU      0.00s WALL (       2 calls)
     v_xc         :      0.03s CPU      0.03s WALL (       4 calls)
     newd         :      0.01s CPU      0.01s WALL (       2 calls)
     mix_rho      :      0.00s CPU      0.00s WALL (       2 calls)

     Called by c_bands:
     init_us_2    :      0.33s CPU      0.33s WALL (    3584 calls)
     cegterg      :     19.52s CPU     19.87s WALL (    1024 calls)

     Called by sum_band:
     sum_band:wei :      0.00s CPU      0.00s WALL (       2 calls)
     sum_band:loo :      1.85s CPU      1.85s WALL (       2 calls)
     sum_band:buf :      0.00s CPU      0.00s WALL (    1024 calls)
     sum_band:ini :      0.08s CPU      0.08s WALL (    1024 calls)
     sum_band:cal :      0.07s CPU      0.07s WALL (    1024 calls)
     sum_band:bec :      0.00s CPU      0.00s WALL (    1024 calls)
     addusdens    :      0.00s CPU      0.00s WALL (       2 calls)
     addusd:skk   :      0.00s CPU      0.00s WALL (       2 calls)
     addusd:dgemm :      0.00s CPU      0.00s WALL (       2 calls)
     addusd:qvan2 :      0.00s CPU      0.00s WALL (       2 calls)

     Called by *egterg:
     cdiaghg      :      0.26s CPU      0.27s WALL (    5755 calls)
     cegterg:over :      0.24s CPU      0.25s WALL (    5243 calls)
     cegterg:upda :      0.11s CPU      0.12s WALL (    5243 calls)
     cegterg:last :      0.24s CPU      0.25s WALL (    4115 calls)
     h_psi        :     22.29s CPU     22.66s WALL (    6779 calls)
     s_psi        :      0.26s CPU      0.26s WALL (    6779 calls)
     g_psi        :      0.03s CPU      0.04s WALL (    5243 calls)

     Called by h_psi:
     h_psi:calbec :      0.40s CPU      0.41s WALL (    6779 calls)
     vloc_psi     :     21.58s CPU     21.93s WALL (    6779 calls)
     add_vuspsi   :      0.26s CPU      0.27s WALL (    6779 calls)

     General routines
     calbec       :      0.61s CPU      0.62s WALL (   10363 calls)
     fft          :      0.03s CPU      0.03s WALL (      48 calls)
     ffts         :      0.00s CPU      0.00s WALL (       2 calls)
     fftw         :     22.61s CPU     22.99s WALL (   48894 calls)

     Parallel routines

     PWSCF        :     27.66s CPU     28.08s WALL


   This run was terminated on:  16:22:46   7Sep2021            

=------------------------------------------------------------------------------=
   JOB DONE.
=------------------------------------------------------------------------------=
